 Entering Gaussian System, Link 0=/opt/gaussian/g16/sse4/g16/g16
 Initial command:
 /opt/gaussian/g16/sse4/g16/l1.exe "/home/koerstz/git/xtb_gaussian/example/Gau-2662.inp" -scrdir="/home/koerstz/git/xtb_gaussian/example/"
 Entering Link 1 = /opt/gaussian/g16/sse4/g16/l1.exe PID=      2665.
  
 Copyright (c) 1988,1990,1992,1993,1995,1998,2003,2009,2016,
            Gaussian, Inc.  All Rights Reserved.
  
 This is part of the Gaussian(R) 16 program.  It is based on
 the Gaussian(R) 09 system (copyright 2009, Gaussian, Inc.),
 the Gaussian(R) 03 system (copyright 2003, Gaussian, Inc.),
 the Gaussian(R) 98 system (copyright 1998, Gaussian, Inc.),
 the Gaussian(R) 94 system (copyright 1995, Gaussian, Inc.),
 the Gaussian 92(TM) system (copyright 1992, Gaussian, Inc.),
 the Gaussian 90(TM) system (copyright 1990, Gaussian, Inc.),
 the Gaussian 88(TM) system (copyright 1988, Gaussian, Inc.),
 the Gaussian 86(TM) system (copyright 1986, Carnegie Mellon
 University), and the Gaussian 82(TM) system (copyright 1983,
 Carnegie Mellon University). Gaussian is a federally registered
 trademark of Gaussian, Inc.
  
 This software contains proprietary and confidential information,
 including trade secrets, belonging to Gaussian, Inc.
  
 This software is provided under written license and may be
 used, copied, transmitted, or stored only in accord with that
 written license.
  
 The following legend is applicable only to US Government
 contracts under FAR:
  
                    RESTRICTED RIGHTS LEGEND
  
 Use, reproduction and disclosure by the US Government is
 subject to restrictions as set forth in subparagraphs (a)
 and (c) of the Commercial Computer Software - Restricted
 Rights clause in FAR 52.227-19.
  
 Gaussian, Inc.
 340 Quinnipiac St., Bldg. 40, Wallingford CT 06492
  
  
 ---------------------------------------------------------------
 Warning -- This program may not be used in any manner that
 competes with the business of Gaussian, Inc. or will provide
 assistance to any competitor of Gaussian, Inc.  The licensee
 of this program is prohibited from giving any competitor of
 Gaussian, Inc. access to this program.  By using this program,
 the user acknowledges that Gaussian, Inc. is engaged in the
 business of creating and licensing software in the field of
 computational chemistry and represents and warrants to the
 licensee that it is not a competitor of Gaussian, Inc. and that
 it will not use this program in any manner prohibited above.
 ---------------------------------------------------------------
  

 Cite this work as:
 Gaussian 16, Revision A.03,
 M. J. Frisch, G. W. Trucks, H. B. Schlegel, G. E. Scuseria, 
 M. A. Robb, J. R. Cheeseman, G. Scalmani, V. Barone, 
 G. A. Petersson, H. Nakatsuji, X. Li, M. Caricato, A. V. Marenich, 
 J. Bloino, B. G. Janesko, R. Gomperts, B. Mennucci, H. P. Hratchian, 
 J. V. Ortiz, A. F. Izmaylov, J. L. Sonnenberg, D. Williams-Young, 
 F. Ding, F. Lipparini, F. Egidi, J. Goings, B. Peng, A. Petrone, 
 T. Henderson, D. Ranasinghe, V. G. Zakrzewski, J. Gao, N. Rega, 
 G. Zheng, W. Liang, M. Hada, M. Ehara, K. Toyota, R. Fukuda, 
 J. Hasegawa, M. Ishida, T. Nakajima, Y. Honda, O. Kitao, H. Nakai, 
 T. Vreven, K. Throssell, J. A. Montgomery, Jr., J. E. Peralta, 
 F. Ogliaro, M. J. Bearpark, J. J. Heyd, E. N. Brothers, K. N. Kudin, 
 V. N. Staroverov, T. A. Keith, R. Kobayashi, J. Normand, 
 K. Raghavachari, A. P. Rendell, J. C. Burant, S. S. Iyengar, 
 J. Tomasi, M. Cossi, J. M. Millam, M. Klene, C. Adamo, R. Cammi, 
 J. W. Ochterski, R. L. Martin, K. Morokuma, O. Farkas, 
 J. B. Foresman, and D. J. Fox, Gaussian, Inc., Wallingford CT, 2016.
 
 ******************************************
 Gaussian 16:  ES64L-G16RevA.03 25-Dec-2016
                15-Feb-2021 
 ******************************************
 %nproc=1
 Will use up to    1 processors via shared memory.
 ----------------------------------------------------------------------
 # opt=(ts, calcall, noeigen, nomicro) # external="../xtb_external.py g
 bsa=water"
 ----------------------------------------------------------------------
 1/5=1,10=4,11=1,18=20,26=1,38=1/1,3;
 2/9=110,12=2,17=6,18=5,40=1/2;
 3/11=9,25=1,30=1,41=9900000,43=2,71=2,140=1/1;
 4/20=17,22=2,24=3,113=1,114=1/2;
 6/7=2,8=2,9=2,10=2,18=1/1;
 7/25=1,44=-1/16;
 1/5=1,10=4,11=1,18=20,26=1/3(3);
 2/9=110/2;
 7/8=1,9=1,25=1,44=-1/16;
 99//99;
 2/9=110/2;
 3/11=9,25=1,30=1,41=9900000,43=2,71=2,140=1/1;
 4/16=2,20=17,22=2,24=3,113=1,114=1/2;
 7/25=1,44=-1/16;
 1/5=1,10=4,11=1,18=20,26=1/3(-4);
 2/9=110/2;
 6/7=2,8=2,9=2,10=2,18=1/1;
 7/8=1,9=1,25=1,44=-1/16;
 99//99;
 --------
 1_ts.xyz
 --------
 Symbolic Z-matrix:
 Charge =  0 Multiplicity = 1
 N                     1.1123   -0.71483  -0.17603 
 B                     1.33354   0.71476  -0.14346 
 N                    -1.70138   0.03221  -0.24208 
 B                    -0.62413   0.11683   0.6765 
 H                    -1.85625   0.70039  -0.97962 
 H                     1.08136   1.34518  -1.12651 
 H                     2.06275   1.15417   0.69318 
 H                     1.54747  -1.34117   0.48494 
 H                     0.74912  -1.18217  -0.99334 
 H                    -2.36321  -0.72653  -0.23494 
 H                    -0.59594  -0.52929   1.67885 
 H                    -0.04877   1.19981   0.73902 
 
 Add virtual bond connecting atoms H12        and B2         Dist= 3.23D+00.

 GradGradGradGradGradGradGradGradGradGradGradGradGradGradGradGradGradGrad
 Berny optimization.
 Initialization pass.
                           ----------------------------
                           !    Initial Parameters    !
                           ! (Angstroms and Degrees)  !
 --------------------------                            --------------------------
 ! Name  Definition              Value          Derivative Info.                !
 --------------------------------------------------------------------------------
 ! R1    R(1,2)                  1.447          calculate D2E/DX2 analytically  !
 ! R2    R(1,8)                  1.0092         calculate D2E/DX2 analytically  !
 ! R3    R(1,9)                  1.0091         calculate D2E/DX2 analytically  !
 ! R4    R(2,6)                  1.1947         calculate D2E/DX2 analytically  !
 ! R5    R(2,7)                  1.1936         calculate D2E/DX2 analytically  !
 ! R6    R(2,12)                 1.7102         calculate D2E/DX2 analytically  !
 ! R7    R(3,4)                  1.4182         calculate D2E/DX2 analytically  !
 ! R8    R(3,5)                  1.0072         calculate D2E/DX2 analytically  !
 ! R9    R(3,10)                 1.0069         calculate D2E/DX2 analytically  !
 ! R10   R(4,11)                 1.1929         calculate D2E/DX2 analytically  !
 ! R11   R(4,12)                 1.2279         calculate D2E/DX2 analytically  !
 ! A1    A(2,1,8)              122.1733         calculate D2E/DX2 analytically  !
 ! A2    A(2,1,9)              122.0606         calculate D2E/DX2 analytically  !
 ! A3    A(8,1,9)              113.4663         calculate D2E/DX2 analytically  !
 ! A4    A(1,2,6)              118.0686         calculate D2E/DX2 analytically  !
 ! A5    A(1,2,7)              118.2217         calculate D2E/DX2 analytically  !
 ! A6    A(1,2,12)              99.6857         calculate D2E/DX2 analytically  !
 ! A7    A(6,2,7)              120.7585         calculate D2E/DX2 analytically  !
 ! A8    A(6,2,12)              95.9878         calculate D2E/DX2 analytically  !
 ! A9    A(7,2,12)              91.5871         calculate D2E/DX2 analytically  !
 ! A10   A(4,3,5)              123.4701         calculate D2E/DX2 analytically  !
 ! A11   A(4,3,10)             122.6598         calculate D2E/DX2 analytically  !
 ! A12   A(5,3,10)             113.8317         calculate D2E/DX2 analytically  !
 ! A13   A(3,4,11)             121.9966         calculate D2E/DX2 analytically  !
 ! A14   A(3,4,12)             116.1999         calculate D2E/DX2 analytically  !
 ! A15   A(11,4,12)            115.0782         calculate D2E/DX2 analytically  !
 ! A16   A(2,12,4)              95.8723         calculate D2E/DX2 analytically  !
 ! D1    D(8,1,2,6)            161.1463         calculate D2E/DX2 analytically  !
 ! D2    D(8,1,2,7)              0.4173         calculate D2E/DX2 analytically  !
 ! D3    D(8,1,2,12)           -96.6761         calculate D2E/DX2 analytically  !
 ! D4    D(9,1,2,6)             -0.501          calculate D2E/DX2 analytically  !
 ! D5    D(9,1,2,7)           -161.2299         calculate D2E/DX2 analytically  !
 ! D6    D(9,1,2,12)           101.6767         calculate D2E/DX2 analytically  !
 ! D7    D(1,2,12,4)           -11.3586         calculate D2E/DX2 analytically  !
 ! D8    D(6,2,12,4)           108.4995         calculate D2E/DX2 analytically  !
 ! D9    D(7,2,12,4)          -130.3472         calculate D2E/DX2 analytically  !
 ! D10   D(5,3,4,11)           165.8774         calculate D2E/DX2 analytically  !
 ! D11   D(5,3,4,12)            16.0585         calculate D2E/DX2 analytically  !
 ! D12   D(10,3,4,11)          -16.5136         calculate D2E/DX2 analytically  !
 ! D13   D(10,3,4,12)         -166.3326         calculate D2E/DX2 analytically  !
 ! D14   D(3,4,12,2)          -104.1126         calculate D2E/DX2 analytically  !
 ! D15   D(11,4,12,2)          103.9694         calculate D2E/DX2 analytically  !
 --------------------------------------------------------------------------------
 Trust Radius=3.00D-01 FncErr=1.00D-07 GrdErr=1.00D-07 EigMax=2.50D+02 EigMin=1.00D-04
 Number of steps in this run=     52 maximum allowed number of steps=    100.
 Search for a saddle point of order  1.
 GradGradGradGradGradGradGradGradGradGradGradGradGradGradGradGradGradGrad

                          Input orientation:                          
 ---------------------------------------------------------------------
 Center     Atomic      Atomic             Coordinates (Angstroms)
 Number     Number       Type             X           Y           Z
 ---------------------------------------------------------------------
      1          7           0        1.112300   -0.714830   -0.176030
      2          5           0        1.333540    0.714760   -0.143460
      3          7           0       -1.701380    0.032210   -0.242080
      4          5           0       -0.624130    0.116830    0.676500
      5          1           0       -1.856250    0.700390   -0.979620
      6          1           0        1.081360    1.345180   -1.126510
      7          1           0        2.062750    1.154170    0.693180
      8          1           0        1.547470   -1.341170    0.484940
      9          1           0        0.749120   -1.182170   -0.993340
     10          1           0       -2.363210   -0.726530   -0.234940
     11          1           0       -0.595940   -0.529290    1.678850
     12          1           0       -0.048770    1.199810    0.739020
 ---------------------------------------------------------------------
                    Distance matrix (angstroms):
                    1          2          3          4          5
     1  N    0.000000
     2  B    1.446975   0.000000
     3  N    2.911911   3.112289   0.000000
     4  B    2.105625   2.205068   1.418244   0.000000
     5  H    3.385394   3.297595   1.007181   2.145086   0.000000
     6  H    2.268923   1.194743   3.201523   2.769185   3.011127
     7  H    2.269811   1.193648   4.037596   2.880222   4.285176
     8  H    1.009235   2.160440   3.601355   2.622652   4.230628
     9  H    1.009110   2.159210   2.836205   2.522218   3.214370
    10  H    3.476029   3.968834   1.006855   2.136909   1.687500
    11  H    2.528456   2.931103   2.286318   1.192884   3.188723
    12  H    2.418935   1.710212   2.248770   1.227922   2.543645
                    6          7          8          9         10
     6  H    0.000000
     7  H    2.076267   0.000000
     8  H    3.167097   2.556482   0.000000
     9  H    2.552570   3.166774   1.687589   0.000000
    10  H    4.117274   4.897710   4.023609   3.235642   0.000000
    11  H    3.767893   3.297608   2.584333   3.062032   2.612420
    12  H    2.185985   2.112511   3.011498   3.051480   3.164809
                   11         12
    11  H    0.000000
    12  H    2.042661   0.000000
 Stoichiometry    B2H8N2
 Framework group  C1[X(B2H8N2)]
 Deg. of freedom    30
 Full point group                 C1      NOp   1
 Largest Abelian subgroup         C1      NOp   1
 Largest concise Abelian subgroup C1      NOp   1
                         Standard orientation:                         
 ---------------------------------------------------------------------
 Center     Atomic      Atomic             Coordinates (Angstroms)
 Number     Number       Type             X           Y           Z
 ---------------------------------------------------------------------
      1          7           0        1.112299   -0.714830   -0.176030
      2          5           0        1.333539    0.714760   -0.143460
      3          7           0       -1.701381    0.032210   -0.242080
      4          5           0       -0.624131    0.116830    0.676500
      5          1           0       -1.856251    0.700390   -0.979620
      6          1           0        1.081360    1.345180   -1.126510
      7          1           0        2.062750    1.154170    0.693180
      8          1           0        1.547469   -1.341170    0.484940
      9          1           0        0.749119   -1.182170   -0.993340
     10          1           0       -2.363211   -0.726530   -0.234940
     11          1           0       -0.595941   -0.529290    1.678850
     12          1           0       -0.048770    1.199810    0.739020
 ---------------------------------------------------------------------
 Rotational constants (GHZ):          14.0550412           4.4521981           4.1481936
 Standard basis: STO-3G (5D, 7F)
 There are    28 symmetry adapted cartesian basis functions of A   symmetry.
 There are    28 symmetry adapted basis functions of A   symmetry.
    28 basis functions,    84 primitive gaussians,    28 cartesian basis functions
    16 alpha electrons       16 beta electrons
       nuclear repulsion energy       113.1565380345 Hartrees.
 NAtoms=   12 NActive=   12 NUniq=   12 SFac= 1.00D+00 NAtFMM=   60 NAOKFM=F Big=F
 Integral buffers will be    131072 words long.
 Raffenetti 1 integral format.
 Two-electron integral symmetry is turned on.
 External calculation of energy, first and second derivatives.
 Running external command "../xtb_external.py gbsa=water R"
         input file       "/home/koerstz/git/xtb_gaussian/example/Gau-2665.EIn"
         output file      "/home/koerstz/git/xtb_gaussian/example/Gau-2665.EOu"
         message file     "/home/koerstz/git/xtb_gaussian/example/Gau-2665.EMs"
         fchk file        "/home/koerstz/git/xtb_gaussian/example/Gau-2665.EFC"
         mat. el file     "/home/koerstz/git/xtb_gaussian/example/Gau-2665.EUF"
/opt/xtb/6.3.2/bin/xtb mol.xyz --chrg 0 --uhf 0 --gfn 2 --hess --grad --gbsa water 
 Recovered energy= -12.4172705546     dipole=     -0.394000000000     -1.017000000000     -0.664000000000
 Energy=    -12.4172706     NIter=   0.
 Dipole moment=      -0.394000      -1.017000      -0.664000
 ***** Axes restored to original set *****
 -------------------------------------------------------------------
 Center     Atomic                   Forces (Hartrees/Bohr)
 Number     Number              X              Y              Z
 -------------------------------------------------------------------
      1        7          -0.000804517    0.007248785   -0.001964423
      2        5           0.003812356   -0.004810749   -0.003579572
      3        7           0.006955958   -0.001814846    0.008064783
      4        5          -0.003025388    0.008657331    0.001557788
      5        1           0.001211116   -0.003365186    0.002792754
      6        1           0.004779429   -0.004283736    0.005743892
      7        1          -0.001213729   -0.002837533   -0.006895779
      8        1          -0.002924667    0.002612430   -0.002486685
      9        1           0.002183507    0.001440702    0.003285583
     10        1           0.002604263    0.001741519   -0.001817249
     11        1          -0.001681486    0.002059200   -0.007945950
     12        1          -0.011896841   -0.006647915    0.003244858
 -------------------------------------------------------------------
 Cartesian Forces:  Max     0.011896841 RMS     0.004658999
 FormGI is forming the generalized inverse of G from B-inverse, IUseBI=4.

 GradGradGradGradGradGradGradGradGradGradGradGradGradGradGradGradGradGrad
 Berny optimization.
 Internal  Forces:  Max     0.013831873 RMS     0.004964858
 Search for a saddle point.
 Step number   1 out of a maximum of   52
 All quantities printed in internal units (Hartrees-Bohrs-Radians)
 Swapping is turned off.
 Second derivative matrix not updated -- analytic derivatives used.
 ITU=  0
     Eigenvalues ---   -0.04338   0.00474   0.00677   0.00708   0.01032
     Eigenvalues ---    0.01233   0.01512   0.04324   0.04817   0.05804
     Eigenvalues ---    0.05893   0.07294   0.07589   0.08216   0.08966
     Eigenvalues ---    0.09285   0.09599   0.10124   0.13715   0.16172
     Eigenvalues ---    0.19669   0.19883   0.21106   0.22876   0.33996
     Eigenvalues ---    0.42272   0.42428   0.43094   0.44039   0.44629
 Eigenvectors required to have negative eigenvalues:
                          R6        D15       A16       D13       D10
   1                   -0.58922   0.27381  -0.25360   0.25187  -0.23393
                          D11       A6        D12       D5        R1
   1                    0.21669  -0.21362  -0.19875   0.17546   0.16787
 RFO step:  Lambda0=6.844244848D-04 Lambda=-7.18538588D-03.
 Linear search not attempted -- option 19 set.
 Maximum step size (   0.300) exceeded in Quadratic search.
    -- Step size scaled by   0.914
 Iteration  1 RMS(Cart)=  0.13606068 RMS(Int)=  0.00626605
 Iteration  2 RMS(Cart)=  0.00764018 RMS(Int)=  0.00138507
 Iteration  3 RMS(Cart)=  0.00001384 RMS(Int)=  0.00138504
 Iteration  4 RMS(Cart)=  0.00000001 RMS(Int)=  0.00138504
 Variable       Old X    -DE/DX   Delta X   Delta X   Delta X     New X
                                 (Linear)    (Quad)   (Total)
    R1        2.73439  -0.01089   0.00000  -0.01263  -0.01263   2.72176
    R2        1.90718  -0.00451   0.00000  -0.00505  -0.00505   1.90213
    R3        1.90694  -0.00411   0.00000  -0.00353  -0.00353   1.90341
    R4        2.25774  -0.00800   0.00000  -0.04030  -0.04030   2.21744
    R5        2.25567  -0.00662   0.00000  -0.03610  -0.03610   2.21957
    R6        3.23183   0.00794   0.00000   0.21173   0.21173   3.44356
    R7        2.68009  -0.01383   0.00000   0.00993   0.00993   2.69002
    R8        1.90330  -0.00446   0.00000  -0.01027  -0.01027   1.89303
    R9        1.90268  -0.00304   0.00000  -0.00912  -0.00912   1.89356
   R10        2.25422  -0.00783   0.00000  -0.01737  -0.01737   2.23686
   R11        2.32044  -0.00941   0.00000  -0.03429  -0.03429   2.28615
    A1        2.13233   0.00026   0.00000  -0.00991  -0.01240   2.11993
    A2        2.13036   0.00033   0.00000  -0.01182  -0.01432   2.11604
    A3        1.98036  -0.00050   0.00000  -0.01316  -0.01590   1.96447
    A4        2.06069  -0.00130   0.00000   0.00076   0.00096   2.06165
    A5        2.06336   0.00199   0.00000   0.00971   0.01034   2.07369
    A6        1.73984  -0.00842   0.00000  -0.11716  -0.11706   1.62279
    A7        2.10763  -0.00128   0.00000  -0.00340  -0.00446   2.10317
    A8        1.67530   0.00520   0.00000   0.04173   0.04117   1.71647
    A9        1.59850   0.00476   0.00000   0.05271   0.05289   1.65139
   A10        2.15496  -0.00068   0.00000  -0.00268  -0.00394   2.15102
   A11        2.14082   0.00114   0.00000   0.00841   0.00716   2.14797
   A12        1.98674  -0.00052   0.00000  -0.00893  -0.01019   1.97654
   A13        2.12924  -0.00411   0.00000  -0.05970  -0.06283   2.06641
   A14        2.02807   0.00502   0.00000  -0.00047  -0.00385   2.02422
   A15        2.00849   0.00100   0.00000  -0.01058  -0.01498   1.99351
   A16        1.67329  -0.00942   0.00000  -0.12932  -0.12932   1.54396
    D1        2.81253  -0.00036   0.00000  -0.03768  -0.03754   2.77499
    D2        0.00728   0.00171   0.00000  -0.05928  -0.05912  -0.05183
    D3       -1.68732   0.00045   0.00000  -0.05688  -0.05624  -1.74355
    D4       -0.00874  -0.00061   0.00000   0.10020   0.09971   0.09096
    D5       -2.81399   0.00146   0.00000   0.07860   0.07813  -2.73586
    D6        1.77459   0.00020   0.00000   0.08100   0.08101   1.85560
    D7       -0.19825   0.00428   0.00000   0.08814   0.08782  -0.11043
    D8        1.89367   0.00243   0.00000   0.07400   0.07272   1.96639
    D9       -2.27499   0.00230   0.00000   0.08191   0.08352  -2.19147
   D10        2.89511   0.00284   0.00000  -0.03519  -0.03388   2.86122
   D11        0.28027  -0.00157   0.00000   0.11339   0.11194   0.39222
   D12       -0.28822   0.00080   0.00000  -0.13516  -0.13372  -0.42194
   D13       -2.90305  -0.00361   0.00000   0.01342   0.01211  -2.89094
   D14       -1.81711   0.00378   0.00000  -0.05666  -0.05715  -1.87426
   D15        1.81461   0.00135   0.00000   0.09691   0.09741   1.91202
         Item               Value     Threshold  Converged?
 Maximum Force            0.013832     0.000450     NO 
 RMS     Force            0.004965     0.000300     NO 
 Maximum Displacement     0.396541     0.001800     NO 
 RMS     Displacement     0.134110     0.001200     NO 
 Predicted change in Energy=-3.839600D-03
 GradGradGradGradGradGradGradGradGradGradGradGradGradGradGradGradGradGrad

                          Input orientation:                          
 ---------------------------------------------------------------------
 Center     Atomic      Atomic             Coordinates (Angstroms)
 Number     Number       Type             X           Y           Z
 ---------------------------------------------------------------------
      1          7           0        0.951520   -0.648908   -0.166518
      2          5           0        1.361454    0.731711   -0.149578
      3          7           0       -1.629409   -0.030460   -0.233157
      4          5           0       -0.543714    0.132100    0.673035
      5          1           0       -1.821416    0.608486   -0.980406
      6          1           0        1.186151    1.372660   -1.116718
      7          1           0        2.124944    1.085522    0.669849
      8          1           0        1.337630   -1.319528    0.477185
      9          1           0        0.597744   -1.078526   -1.006046
     10          1           0       -2.201924   -0.852430   -0.258678
     11          1           0       -0.554531   -0.487662    1.681455
     12          1           0       -0.111588    1.256397    0.786087
 ---------------------------------------------------------------------
                    Distance matrix (angstroms):
                    1          2          3          4          5
     1  N    0.000000
     2  B    1.440292   0.000000
     3  N    2.654829   3.087580   0.000000
     4  B    1.884289   2.160067   1.423498   0.000000
     5  H    3.151607   3.291826   1.001748   2.143206   0.000000
     6  H    2.246034   1.173417   3.267539   2.781122   3.106124
     7  H    2.254924   1.174547   4.019454   2.833859   4.304029
     8  H    1.006561   2.144990   3.312039   2.384331   3.977610
     9  H    1.007242   2.143304   2.579924   2.363864   2.949407
    10  H    3.161349   3.901162   1.002027   2.141740   1.673306
    11  H    2.389392   2.917285   2.242796   1.183694   3.145161
    12  H    2.380723   1.822256   2.235764   1.209776   2.542400
                    6          7          8          9         10
     6  H    0.000000
     7  H    2.038530   0.000000
     8  H    3.132308   2.537962   0.000000
     9  H    2.523250   3.134337   1.674959   0.000000
    10  H    4.143225   4.831109   3.645287   2.906513   0.000000
    11  H    3.784250   3.267697   2.392183   2.983206   2.571201
    12  H    2.306147   2.246061   2.971707   3.027666   3.147728
                   11         12
    11  H    0.000000
    12  H    2.009882   0.000000
 Stoichiometry    B2H8N2
 Framework group  C1[X(B2H8N2)]
 Deg. of freedom    30
 Full point group                 C1      NOp   1
 Largest Abelian subgroup         C1      NOp   1
 Largest concise Abelian subgroup C1      NOp   1
                         Standard orientation:                         
 ---------------------------------------------------------------------
 Center     Atomic      Atomic             Coordinates (Angstroms)
 Number     Number       Type             X           Y           Z
 ---------------------------------------------------------------------
      1          7           0        0.897918   -0.733814   -0.148952
      2          5           0        1.418201    0.608910   -0.177930
      3          7           0       -1.624829    0.089035   -0.231312
      4          5           0       -0.525584    0.192530    0.667183
      5          1           0       -1.767822    0.716812   -0.998741
      6          1           0        1.291055    1.230186   -1.165228
      7          1           0        2.211381    0.926189    0.628146
      8          1           0        1.231362   -1.412221    0.515686
      9          1           0        0.506889   -1.160431   -0.973349
     10          1           0       -2.262032   -0.684286   -0.228915
     11          1           0       -0.582053   -0.391233    1.695368
     12          1           0       -0.003484    1.281235    0.742618
 ---------------------------------------------------------------------
 Rotational constants (GHZ):          14.6748006           4.8483856           4.5406798
 Standard basis: STO-3G (5D, 7F)
 There are    28 symmetry adapted cartesian basis functions of A   symmetry.
 There are    28 symmetry adapted basis functions of A   symmetry.
    28 basis functions,    84 primitive gaussians,    28 cartesian basis functions
    16 alpha electrons       16 beta electrons
       nuclear repulsion energy       116.1779525348 Hartrees.
 NAtoms=   12 NActive=   12 NUniq=   12 SFac= 1.00D+00 NAtFMM=   60 NAOKFM=F Big=F
 Integral buffers will be    131072 words long.
 Raffenetti 1 integral format.
 Two-electron integral symmetry is turned on.
 External calculation of energy, first and second derivatives.
 Running external command "../xtb_external.py gbsa=water R"
         input file       "/home/koerstz/git/xtb_gaussian/example/Gau-2665.EIn"
         output file      "/home/koerstz/git/xtb_gaussian/example/Gau-2665.EOu"
         message file     "/home/koerstz/git/xtb_gaussian/example/Gau-2665.EMs"
         fchk file        "/home/koerstz/git/xtb_gaussian/example/Gau-2665.EFC"
         mat. el file     "/home/koerstz/git/xtb_gaussian/example/Gau-2665.EUF"
/opt/xtb/6.3.2/bin/xtb mol.xyz --chrg 0 --uhf 0 --gfn 2 --hess --grad --gbsa water 
 Recovered energy= -12.4202566772     dipole=      0.016000000000     -1.136000000000     -0.756000000000
 Energy=    -12.4202567     NIter=   0.
 Dipole moment=       0.016000      -1.136000      -0.756000
 ***** Axes restored to original set *****
 -------------------------------------------------------------------
 Center     Atomic                   Forces (Hartrees/Bohr)
 Number     Number              X              Y              Z
 -------------------------------------------------------------------
      1        7           0.002544582    0.000601511    0.001528090
      2        5           0.002995618   -0.001060568   -0.001949962
      3        7          -0.005097514    0.002043251    0.000882072
      4        5           0.000139666   -0.000463911    0.000826577
      5        1           0.000035371   -0.000353088   -0.000087163
      6        1           0.000527967    0.000090835    0.000058401
      7        1           0.000679720   -0.000485179   -0.000446297
      8        1           0.001145696   -0.000204842   -0.000965202
      9        1           0.000607977   -0.000238236   -0.000188883
     10        1           0.000611813   -0.000194702   -0.000660872
     11        1          -0.000815717    0.000328448    0.000355644
     12        1          -0.003375179   -0.000063518    0.000647596
 -------------------------------------------------------------------
 Cartesian Forces:  Max     0.005097514 RMS     0.001419712
 FormGI is forming the generalized inverse of G from B-inverse, IUseBI=4.

 GradGradGradGradGradGradGradGradGradGradGradGradGradGradGradGradGradGrad
 Berny optimization.
 Internal  Forces:  Max     0.016034056 RMS     0.003367040
 Search for a saddle point.
 Step number   2 out of a maximum of   52
 All quantities printed in internal units (Hartrees-Bohrs-Radians)
 Swapping is turned off.
 Second derivative matrix not updated -- analytic derivatives used.
 ITU=  0  0
     Eigenvalues ---   -0.02476   0.00003   0.00393   0.00716   0.00960
     Eigenvalues ---    0.01581   0.02099   0.04075   0.04899   0.05838
     Eigenvalues ---    0.06163   0.07460   0.07885   0.08828   0.09200
     Eigenvalues ---    0.09563   0.10898   0.13227   0.18872   0.21137
     Eigenvalues ---    0.22161   0.23372   0.24606   0.31125   0.37445
     Eigenvalues ---    0.43019   0.44692   0.44773   0.46253   0.76346
 Eigenvectors required to have negative eigenvalues:
                          R6        D15       D5        D1        D13
   1                   -0.72534   0.23235   0.23055  -0.22456   0.21365
                          D11       D10       D12       R1        D3
   1                    0.20272  -0.19018  -0.17925   0.14651  -0.14038
 RFO step:  Lambda0=9.362757923D-04 Lambda=-2.21111365D-03.
 Linear search not attempted -- option 19 set.
 Iteration  1 RMS(Cart)=  0.03963727 RMS(Int)=  0.05024751
 Iteration  2 RMS(Cart)=  0.03021990 RMS(Int)=  0.01687371
 Iteration  3 RMS(Cart)=  0.00335155 RMS(Int)=  0.01652472
 Iteration  4 RMS(Cart)=  0.00001368 RMS(Int)=  0.01652472
 Iteration  5 RMS(Cart)=  0.00000088 RMS(Int)=  0.01652472
 Variable       Old X    -DE/DX   Delta X   Delta X   Delta X     New X
                                 (Linear)    (Quad)   (Total)
    R1        2.72176  -0.00139   0.00000   0.02445   0.02445   2.74621
    R2        1.90213  -0.00004   0.00000   0.00264   0.00264   1.90476
    R3        1.90341   0.00004   0.00000   0.00348   0.00348   1.90689
    R4        2.21744  -0.00008   0.00000  -0.00050  -0.00050   2.21693
    R5        2.21957  -0.00002   0.00000  -0.00152  -0.00152   2.21805
    R6        3.44356   0.00825   0.00000  -0.03163  -0.03163   3.41194
    R7        2.69002   0.00314   0.00000   0.02246   0.02246   2.71248
    R8        1.89303  -0.00017   0.00000   0.00169   0.00169   1.89472
    R9        1.89356  -0.00017   0.00000   0.00267   0.00267   1.89622
   R10        2.23686   0.00014   0.00000   0.00150   0.00150   2.23836
   R11        2.28615   0.00046   0.00000   0.01211   0.01211   2.29825
    A1        2.11993  -0.00031   0.00000  -0.02589  -0.02956   2.09037
    A2        2.11604  -0.00002   0.00000  -0.01792  -0.02158   2.09446
    A3        1.96447  -0.00010   0.00000  -0.01687  -0.02123   1.94324
    A4        2.06165   0.00123   0.00000   0.00211   0.00207   2.06372
    A5        2.07369  -0.00231   0.00000  -0.00894  -0.00887   2.06482
    A6        1.62279   0.00763   0.00000  -0.03134  -0.03130   1.59149
    A7        2.10317   0.00012   0.00000  -0.00275  -0.00328   2.09989
    A8        1.71647  -0.00281   0.00000   0.01940   0.01934   1.73581
    A9        1.65139  -0.00169   0.00000   0.04071   0.04059   1.69198
   A10        2.15102   0.00016   0.00000  -0.02765  -0.07876   2.07226
   A11        2.14797  -0.00005   0.00000  -0.03258  -0.08386   2.06412
   A12        1.97654  -0.00021   0.00000  -0.01375  -0.08154   1.89500
   A13        2.06641  -0.00080   0.00000  -0.03107  -0.03484   2.03157
   A14        2.02422  -0.00258   0.00000  -0.04991  -0.05345   1.97078
   A15        1.99351   0.00129   0.00000  -0.01149  -0.01620   1.97731
   A16        1.54396   0.01603   0.00000  -0.00073  -0.00073   1.54323
    D1        2.77499  -0.00230   0.00000  -0.09224  -0.09152   2.68347
    D2       -0.05183   0.00097   0.00000  -0.05901  -0.05833  -0.11016
    D3       -1.74355  -0.00109   0.00000  -0.08709  -0.08643  -1.82999
    D4        0.09096  -0.00113   0.00000   0.07071   0.07006   0.16102
    D5       -2.73586   0.00213   0.00000   0.10394   0.10325  -2.63261
    D6        1.85560   0.00007   0.00000   0.07586   0.07515   1.93075
    D7       -0.11043  -0.00316   0.00000   0.01388   0.01377  -0.09666
    D8        1.96639  -0.00081   0.00000   0.01260   0.01213   1.97852
    D9       -2.19147  -0.00158   0.00000   0.02244   0.02302  -2.16845
   D10        2.86122  -0.00110   0.00000   0.24030   0.22208   3.08331
   D11        0.39222   0.00150   0.00000   0.38081   0.35998   0.75220
   D12       -0.42194  -0.00201   0.00000  -0.44243  -0.42160  -0.84353
   D13       -2.89094   0.00059   0.00000  -0.30192  -0.28370   3.10854
   D14       -1.87426  -0.00431   0.00000  -0.09800  -0.09733  -1.97159
   D15        1.91202  -0.00109   0.00000   0.04339   0.04272   1.95473
         Item               Value     Threshold  Converged?
 Maximum Force            0.016034     0.000450     NO 
 RMS     Force            0.003367     0.000300     NO 
 Maximum Displacement     0.166525     0.001800     NO 
 RMS     Displacement     0.062947     0.001200     NO 
 Predicted change in Energy=-1.135674D-03
 GradGradGradGradGradGradGradGradGradGradGradGradGradGradGradGradGradGrad

                          Input orientation:                          
 ---------------------------------------------------------------------
 Center     Atomic      Atomic             Coordinates (Angstroms)
 Number     Number       Type             X           Y           Z
 ---------------------------------------------------------------------
      1          7           0        0.895576   -0.641963   -0.152964
      2          5           0        1.343650    0.740460   -0.148906
      3          7           0       -1.713080    0.033000   -0.145036
      4          5           0       -0.539164    0.115087    0.676854
      5          1           0       -1.741139    0.557495   -0.999091
      6          1           0        1.183360    1.378840   -1.120020
      7          1           0        2.142395    1.064297    0.647841
      8          1           0        1.339493   -1.313720    0.453385
      9          1           0        0.588833   -1.070457   -1.013515
     10          1           0       -2.113836   -0.871630   -0.312157
     11          1           0       -0.574039   -0.471877    1.705090
     12          1           0       -0.115188    1.249830    0.785028
 ---------------------------------------------------------------------
                    Distance matrix (angstroms):
                    1          2          3          4          5
     1  N    0.000000
     2  B    1.453231   0.000000
     3  N    2.694573   3.137533   0.000000
     4  B    1.822142   2.148944   1.435382   0.000000
     5  H    3.017763   3.205029   1.002642   2.109326   0.000000
     6  H    2.258686   1.173151   3.339348   2.791579   3.040053
     7  H    2.259904   1.173741   4.069019   2.844749   4.248654
     8  H    1.007958   2.140661   3.389685   2.370819   3.886055
     9  H    1.009082   2.143996   2.696419   2.352709   2.842394
    10  H    3.022358   3.818337   1.003439   2.105076   1.628858
    11  H    2.375092   2.929949   2.230534   1.184489   3.119988
    12  H    2.341015   1.805519   2.213358   1.216182   2.511200
                    6          7          8          9         10
     6  H    0.000000
     7  H    2.035686   0.000000
     8  H    3.122477   2.517425   0.000000
     9  H    2.522669   3.119428   1.665672   0.000000
    10  H    4.072930   4.773354   3.564685   2.799259   0.000000
    11  H    3.807211   3.294938   2.436610   3.016850   2.569059
    12  H    2.309129   2.269344   2.966121   3.018962   3.114322
                   11         12
    11  H    0.000000
    12  H    2.005327   0.000000
 Stoichiometry    B2H8N2
 Framework group  C1[X(B2H8N2)]
 Deg. of freedom    30
 Full point group                 C1      NOp   1
 Largest Abelian subgroup         C1      NOp   1
 Largest concise Abelian subgroup C1      NOp   1
                         Standard orientation:                         
 ---------------------------------------------------------------------
 Center     Atomic      Atomic             Coordinates (Angstroms)
 Number     Number       Type             X           Y           Z
 ---------------------------------------------------------------------
      1          7           0        0.878874   -0.726077   -0.152904
      2          5           0        1.425678    0.620349   -0.158008
      3          7           0       -1.673957    0.135416   -0.192967
      4          5           0       -0.509229    0.143008    0.645884
      5          1           0       -1.651602    0.649682   -1.053387
      6          1           0        1.326099    1.256249   -1.138823
      7          1           0        2.234110    0.895793    0.647123
      8          1           0        1.264186   -1.420363    0.467967
      9          1           0        0.554457   -1.142210   -1.013039
     10          1           0       -2.136639   -0.739985   -0.355717
     11          1           0       -0.601393   -0.426807    1.680210
     12          1           0       -0.005887    1.245479    0.747383
 ---------------------------------------------------------------------
 Rotational constants (GHZ):          14.9305908           4.8105535           4.4969958
 Standard basis: STO-3G (5D, 7F)
 There are    28 symmetry adapted cartesian basis functions of A   symmetry.
 There are    28 symmetry adapted basis functions of A   symmetry.
    28 basis functions,    84 primitive gaussians,    28 cartesian basis functions
    16 alpha electrons       16 beta electrons
       nuclear repulsion energy       116.2165606837 Hartrees.
 NAtoms=   12 NActive=   12 NUniq=   12 SFac= 1.00D+00 NAtFMM=   60 NAOKFM=F Big=F
 Integral buffers will be    131072 words long.
 Raffenetti 1 integral format.
 Two-electron integral symmetry is turned on.
 External calculation of energy, first and second derivatives.
 Running external command "../xtb_external.py gbsa=water R"
         input file       "/home/koerstz/git/xtb_gaussian/example/Gau-2665.EIn"
         output file      "/home/koerstz/git/xtb_gaussian/example/Gau-2665.EOu"
         message file     "/home/koerstz/git/xtb_gaussian/example/Gau-2665.EMs"
         fchk file        "/home/koerstz/git/xtb_gaussian/example/Gau-2665.EFC"
         mat. el file     "/home/koerstz/git/xtb_gaussian/example/Gau-2665.EUF"
/opt/xtb/6.3.2/bin/xtb mol.xyz --chrg 0 --uhf 0 --gfn 2 --hess --grad --gbsa water 
 Recovered energy= -12.4208040301     dipole=      0.456000000000     -1.293000000000     -0.960000000000
 Energy=    -12.4208040     NIter=   0.
 Dipole moment=       0.456000      -1.293000      -0.960000
 ***** Axes restored to original set *****
 -------------------------------------------------------------------
 Center     Atomic                   Forces (Hartrees/Bohr)
 Number     Number              X              Y              Z
 -------------------------------------------------------------------
      1        7          -0.001743052    0.000238403    0.000427932
      2        5           0.000783150    0.001086827   -0.000039132
      3        7          -0.003838528   -0.002047646   -0.005208727
      4        5           0.006238352    0.000041864    0.004107720
      5        1           0.000046929    0.003958958   -0.001786942
      6        1          -0.000030316   -0.000037402   -0.000000691
      7        1          -0.000002688   -0.000065298   -0.000019631
      8        1          -0.000197246   -0.000212428    0.000261775
      9        1          -0.000151146   -0.000190217   -0.000280779
     10        1          -0.001935257   -0.003391240    0.001577711
     11        1           0.000366326    0.000045166    0.000539571
     12        1           0.000463475    0.000573012    0.000421192
 -------------------------------------------------------------------
 Cartesian Forces:  Max     0.006238352 RMS     0.002006748
 FormGI is forming the generalized inverse of G from B-inverse, IUseBI=4.

 GradGradGradGradGradGradGradGradGradGradGradGradGradGradGradGradGradGrad
 Berny optimization.
 Internal  Forces:  Max     0.007868622 RMS     0.001900908
 Search for a saddle point.
 Step number   3 out of a maximum of   52
 All quantities printed in internal units (Hartrees-Bohrs-Radians)
 Swapping is turned off.
 Second derivative matrix not updated -- analytic derivatives used.
 ITU=  0  0  0
     Eigenvalues ---   -0.01820   0.00574   0.00656   0.01046   0.01684
     Eigenvalues ---    0.01896   0.02973   0.04063   0.04886   0.05808
     Eigenvalues ---    0.06058   0.08257   0.08859   0.09219   0.09387
     Eigenvalues ---    0.10510   0.11145   0.13730   0.19267   0.21424
     Eigenvalues ---    0.22736   0.24275   0.24967   0.32023   0.37293
     Eigenvalues ---    0.42517   0.44308   0.44455   0.46021   0.85030
 Eigenvectors required to have negative eigenvalues:
                          R6        D11       D5        D1        D12
   1                    0.77530  -0.25132  -0.23514   0.22410   0.22117
                          D15       R1        R11       D3        D6
   1                   -0.16329  -0.15241  -0.12343   0.12103  -0.11631
 RFO step:  Lambda0=1.080371069D-04 Lambda=-6.89451703D-04.
 Linear search not attempted -- option 19 set.
 Iteration  1 RMS(Cart)=  0.02160863 RMS(Int)=  0.00042882
 Iteration  2 RMS(Cart)=  0.00045889 RMS(Int)=  0.00017958
 Iteration  3 RMS(Cart)=  0.00000028 RMS(Int)=  0.00017957
 Variable       Old X    -DE/DX   Delta X   Delta X   Delta X     New X
                                 (Linear)    (Quad)   (Total)
    R1        2.74621   0.00080   0.00000  -0.00213  -0.00213   2.74408
    R2        1.90476   0.00021   0.00000   0.00096   0.00096   1.90572
    R3        1.90689   0.00037   0.00000   0.00152   0.00152   1.90841
    R4        2.21693  -0.00001   0.00000  -0.00197  -0.00197   2.21497
    R5        2.21805  -0.00003   0.00000  -0.00219  -0.00219   2.21586
    R6        3.41194  -0.00150   0.00000   0.07715   0.07715   3.48909
    R7        2.71248   0.00787   0.00000   0.02399   0.02399   2.73647
    R8        1.89472   0.00359   0.00000   0.00477   0.00477   1.89949
    R9        1.89622   0.00357   0.00000   0.00458   0.00458   1.90080
   R10        2.23836   0.00044   0.00000   0.00319   0.00319   2.24155
   R11        2.29825   0.00107   0.00000  -0.00046  -0.00046   2.29779
    A1        2.09037   0.00025   0.00000   0.00127   0.00126   2.09163
    A2        2.09446  -0.00000   0.00000  -0.00198  -0.00198   2.09248
    A3        1.94324  -0.00011   0.00000  -0.00142  -0.00142   1.94182
    A4        2.06372  -0.00020   0.00000   0.00194   0.00170   2.06542
    A5        2.06482   0.00072   0.00000   0.00224   0.00204   2.06687
    A6        1.59149  -0.00414   0.00000  -0.02352  -0.02354   1.56795
    A7        2.09989  -0.00011   0.00000   0.00729   0.00713   2.10702
    A8        1.73581   0.00148   0.00000  -0.00757  -0.00758   1.72824
    A9        1.69198   0.00137   0.00000  -0.00224  -0.00224   1.68974
   A10        2.07226  -0.00059   0.00000   0.00451   0.00396   2.07622
   A11        2.06412  -0.00025   0.00000   0.00726   0.00671   2.07082
   A12        1.89500   0.00199   0.00000   0.03409   0.03340   1.92841
   A13        2.03157   0.00036   0.00000  -0.00138  -0.00138   2.03019
   A14        1.97078   0.00142   0.00000   0.00309   0.00308   1.97386
   A15        1.97731  -0.00096   0.00000  -0.00606  -0.00606   1.97125
   A16        1.54323  -0.00452   0.00000  -0.01649  -0.01649   1.52675
    D1        2.68347   0.00079   0.00000   0.01120   0.01122   2.69469
    D2       -0.11016  -0.00046   0.00000  -0.02539  -0.02541  -0.13558
    D3       -1.82999   0.00017   0.00000  -0.01018  -0.01017  -1.84016
    D4        0.16102   0.00059   0.00000   0.01551   0.01553   0.17655
    D5       -2.63261  -0.00066   0.00000  -0.02108  -0.02110  -2.65372
    D6        1.93075  -0.00003   0.00000  -0.00587  -0.00587   1.92489
    D7       -0.09666   0.00104   0.00000   0.01407   0.01403  -0.08263
    D8        1.97852   0.00017   0.00000   0.01044   0.01053   1.98905
    D9       -2.16845   0.00081   0.00000   0.01554   0.01549  -2.15297
   D10        3.08331  -0.00102   0.00000  -0.05460  -0.05478   3.02852
   D11        0.75220  -0.00146   0.00000  -0.04719  -0.04738   0.70482
   D12       -0.84353   0.00135   0.00000   0.02002   0.02021  -0.82333
   D13        3.10854   0.00091   0.00000   0.02743   0.02761   3.13615
   D14       -1.97159   0.00099   0.00000  -0.00442  -0.00442  -1.97601
   D15        1.95473  -0.00003   0.00000   0.00069   0.00069   1.95542
         Item               Value     Threshold  Converged?
 Maximum Force            0.007869     0.000450     NO 
 RMS     Force            0.001901     0.000300     NO 
 Maximum Displacement     0.051867     0.001800     NO 
 RMS     Displacement     0.021720     0.001200     NO 
 Predicted change in Energy=-2.943372D-04
 GradGradGradGradGradGradGradGradGradGradGradGradGradGradGradGradGradGrad

                          Input orientation:                          
 ---------------------------------------------------------------------
 Center     Atomic      Atomic             Coordinates (Angstroms)
 Number     Number       Type             X           Y           Z
 ---------------------------------------------------------------------
      1          7           0        0.888722   -0.631349   -0.151669
      2          5           0        1.368259    0.739285   -0.154518
      3          7           0       -1.711006    0.010640   -0.158640
      4          5           0       -0.532733    0.118132    0.676250
      5          1           0       -1.767537    0.566075   -0.994495
      6          1           0        1.209317    1.382359   -1.121489
      7          1           0        2.157753    1.056037    0.652522
      8          1           0        1.319046   -1.312289    0.455081
      9          1           0        0.572069   -1.055532   -1.011711
     10          1           0       -2.111569   -0.899077   -0.312659
     11          1           0       -0.564675   -0.465067    1.708662
     12          1           0       -0.130787    1.260146    0.789177
 ---------------------------------------------------------------------
                    Distance matrix (angstroms):
                    1          2          3          4          5
     1  N    0.000000
     2  B    1.452102   0.000000
     3  N    2.677832   3.164303   0.000000
     4  B    1.807680   2.165589   1.448075   0.000000
     5  H    3.033132   3.250966   1.005165   2.125272   0.000000
     6  H    2.257953   1.172110   3.367042   2.804438   3.089353
     7  H    2.259299   1.172581   4.088781   2.849376   4.284930
     8  H    1.008465   2.140791   3.362738   2.350342   3.893137
     9  H    1.009887   2.142443   2.660241   2.333942   2.846693
    10  H    3.016511   3.849473   1.005862   2.122587   1.652249
    11  H    2.366611   2.942472   2.242139   1.186178   3.133239
    12  H    2.345708   1.846347   2.226368   1.215940   2.518367
                    6          7          8          9         10
     6  H    0.000000
     7  H    2.037924   0.000000
     8  H    3.123898   2.520194   0.000000
     9  H    2.522191   3.121343   1.665946   0.000000
    10  H    4.109432   4.793866   3.539673   2.777600   0.000000
    11  H    3.817039   3.292538   2.416125   3.006870   2.582051
    12  H    2.336977   2.301685   2.971710   3.016550   3.130461
                   11         12
    11  H    0.000000
    12  H    2.002516   0.000000
 Stoichiometry    B2H8N2
 Framework group  C1[X(B2H8N2)]
 Deg. of freedom    30
 Full point group                 C1      NOp   1
 Largest Abelian subgroup         C1      NOp   1
 Largest concise Abelian subgroup C1      NOp   1
                         Standard orientation:                         
 ---------------------------------------------------------------------
 Center     Atomic      Atomic             Coordinates (Angstroms)
 Number     Number       Type             X           Y           Z
 ---------------------------------------------------------------------
      1          7           0        0.860151   -0.723672   -0.152846
      2          5           0        1.454574    0.601138   -0.164744
      3          7           0       -1.675300    0.136746   -0.197012
      4          5           0       -0.501171    0.153453    0.650374
      5          1           0       -1.675404    0.685210   -1.039357
      6          1           0        1.361298    1.244093   -1.140321
      7          1           0        2.259461    0.859041    0.648022
      8          1           0        1.224448   -1.431602    0.466125
      9          1           0        0.517791   -1.129399   -1.011942
     10          1           0       -2.150141   -0.737380   -0.345965
     11          1           0       -0.593683   -0.412868    1.688516
     12          1           0       -0.004746    1.258425    0.755775
 ---------------------------------------------------------------------
 Rotational constants (GHZ):          15.0099886           4.7768345           4.4832478
 Standard basis: STO-3G (5D, 7F)
 There are    28 symmetry adapted cartesian basis functions of A   symmetry.
 There are    28 symmetry adapted basis functions of A   symmetry.
    28 basis functions,    84 primitive gaussians,    28 cartesian basis functions
    16 alpha electrons       16 beta electrons
       nuclear repulsion energy       116.0559931823 Hartrees.
 NAtoms=   12 NActive=   12 NUniq=   12 SFac= 1.00D+00 NAtFMM=   60 NAOKFM=F Big=F
 Integral buffers will be    131072 words long.
 Raffenetti 1 integral format.
 Two-electron integral symmetry is turned on.
 External calculation of energy, first and second derivatives.
 Running external command "../xtb_external.py gbsa=water R"
         input file       "/home/koerstz/git/xtb_gaussian/example/Gau-2665.EIn"
         output file      "/home/koerstz/git/xtb_gaussian/example/Gau-2665.EOu"
         message file     "/home/koerstz/git/xtb_gaussian/example/Gau-2665.EMs"
         fchk file        "/home/koerstz/git/xtb_gaussian/example/Gau-2665.EFC"
         mat. el file     "/home/koerstz/git/xtb_gaussian/example/Gau-2665.EUF"
/opt/xtb/6.3.2/bin/xtb mol.xyz --chrg 0 --uhf 0 --gfn 2 --hess --grad --gbsa water 
 Recovered energy= -12.4211113146     dipole=      0.492000000000     -1.298000000000     -0.972000000000
 Energy=    -12.4211113     NIter=   0.
 Dipole moment=       0.492000      -1.298000      -0.972000
 ***** Axes restored to original set *****
 -------------------------------------------------------------------
 Center     Atomic                   Forces (Hartrees/Bohr)
 Number     Number              X              Y              Z
 -------------------------------------------------------------------
      1        7          -0.000065553   -0.000012987    0.000020048
      2        5           0.000064579   -0.000028223   -0.000011087
      3        7          -0.000013796   -0.000242417   -0.000504429
      4        5           0.000235447    0.000045038    0.000311618
      5        1          -0.000121313    0.000177189    0.000068069
      6        1           0.000018810    0.000029939   -0.000007821
      7        1           0.000032660    0.000001861    0.000005814
      8        1           0.000030980   -0.000013102   -0.000023963
      9        1           0.000009871   -0.000005877   -0.000001702
     10        1          -0.000128484   -0.000002109    0.000108922
     11        1          -0.000013519    0.000013393    0.000047493
     12        1          -0.000049684    0.000037295   -0.000012962
 -------------------------------------------------------------------
 Cartesian Forces:  Max     0.000504429 RMS     0.000125605
 FormGI is forming the generalized inverse of G from B-inverse, IUseBI=4.

 GradGradGradGradGradGradGradGradGradGradGradGradGradGradGradGradGradGrad
 Berny optimization.
 Internal  Forces:  Max     0.000406283 RMS     0.000084341
 Search for a saddle point.
 Step number   4 out of a maximum of   52
 All quantities printed in internal units (Hartrees-Bohrs-Radians)
 Swapping is turned off.
 Second derivative matrix not updated -- analytic derivatives used.
 ITU=  0  0  0  0
     Eigenvalues ---   -0.01651   0.00507   0.00633   0.00846   0.01617
     Eigenvalues ---    0.01735   0.02909   0.03948   0.04862   0.05750
     Eigenvalues ---    0.05995   0.08197   0.08739   0.09188   0.09373
     Eigenvalues ---    0.10157   0.11120   0.14031   0.19445   0.21219
     Eigenvalues ---    0.22986   0.24539   0.25285   0.29957   0.37597
     Eigenvalues ---    0.42301   0.43624   0.44160   0.45031   0.90637
 Eigenvectors required to have negative eigenvalues:
                          R6        D11       D5        D12       D1
   1                    0.78735  -0.25173  -0.23199   0.22667   0.22567
                          D15       R1        D3        R11       D6
   1                   -0.15987  -0.14615   0.11547  -0.11315  -0.11124
 RFO step:  Lambda0=2.552499499D-07 Lambda=-7.38911471D-06.
 Linear search not attempted -- option 19 set.
 Iteration  1 RMS(Cart)=  0.00403839 RMS(Int)=  0.00002871
 Iteration  2 RMS(Cart)=  0.00002247 RMS(Int)=  0.00001831
 Iteration  3 RMS(Cart)=  0.00000000 RMS(Int)=  0.00001831
 Variable       Old X    -DE/DX   Delta X   Delta X   Delta X     New X
                                 (Linear)    (Quad)   (Total)
    R1        2.74408   0.00003   0.00000   0.00114   0.00114   2.74522
    R2        1.90572   0.00001   0.00000   0.00003   0.00003   1.90575
    R3        1.90841  -0.00000   0.00000   0.00001   0.00001   1.90842
    R4        2.21497   0.00002   0.00000   0.00020   0.00020   2.21517
    R5        2.21586   0.00002   0.00000   0.00023   0.00023   2.21609
    R6        3.48909   0.00009   0.00000  -0.00781  -0.00781   3.48128
    R7        2.73647   0.00041   0.00000   0.00011   0.00011   2.73657
    R8        1.89949   0.00004   0.00000  -0.00040  -0.00040   1.89908
    R9        1.90080   0.00004   0.00000  -0.00044  -0.00044   1.90036
   R10        2.24155   0.00004   0.00000   0.00013   0.00013   2.24168
   R11        2.29779   0.00003   0.00000   0.00095   0.00095   2.29874
    A1        2.09163  -0.00002   0.00000  -0.00042  -0.00042   2.09121
    A2        2.09248   0.00000   0.00000  -0.00071  -0.00071   2.09177
    A3        1.94182  -0.00000   0.00000  -0.00031  -0.00031   1.94150
    A4        2.06542   0.00001   0.00000   0.00009   0.00009   2.06551
    A5        2.06687   0.00001   0.00000  -0.00037  -0.00037   2.06649
    A6        1.56795   0.00002   0.00000   0.00076   0.00076   1.56871
    A7        2.10702  -0.00002   0.00000  -0.00065  -0.00065   2.10637
    A8        1.72824  -0.00002   0.00000   0.00011   0.00011   1.72835
    A9        1.68974   0.00002   0.00000   0.00210   0.00210   1.69184
   A10        2.07622   0.00008   0.00000   0.00450   0.00444   2.08067
   A11        2.07082   0.00007   0.00000   0.00425   0.00420   2.07502
   A12        1.92841   0.00004   0.00000   0.00364   0.00356   1.93197
   A13        2.03019   0.00000   0.00000   0.00064   0.00064   2.03083
   A14        1.97386   0.00000   0.00000  -0.00054  -0.00054   1.97332
   A15        1.97125  -0.00001   0.00000  -0.00019  -0.00019   1.97106
   A16        1.52675   0.00009   0.00000   0.00147   0.00147   1.52822
    D1        2.69469  -0.00003   0.00000  -0.00487  -0.00487   2.68982
    D2       -0.13558  -0.00001   0.00000  -0.00153  -0.00153  -0.13711
    D3       -1.84016  -0.00004   0.00000  -0.00432  -0.00432  -1.84447
    D4        0.17655   0.00000   0.00000  -0.00218  -0.00218   0.17437
    D5       -2.65372   0.00002   0.00000   0.00115   0.00115  -2.65256
    D6        1.92489  -0.00001   0.00000  -0.00163  -0.00163   1.92326
    D7       -0.08263   0.00002   0.00000   0.00329   0.00329  -0.07934
    D8        1.98905   0.00003   0.00000   0.00352   0.00352   1.99257
    D9       -2.15297   0.00001   0.00000   0.00343   0.00343  -2.14954
   D10        3.02852  -0.00018   0.00000  -0.01372  -0.01374   3.01478
   D11        0.70482  -0.00016   0.00000  -0.01352  -0.01354   0.69128
   D12       -0.82333   0.00012   0.00000   0.00607   0.00609  -0.81724
   D13        3.13615   0.00014   0.00000   0.00627   0.00629  -3.14074
   D14       -1.97601  -0.00001   0.00000  -0.00177  -0.00177  -1.97778
   D15        1.95542   0.00000   0.00000  -0.00197  -0.00197   1.95344
         Item               Value     Threshold  Converged?
 Maximum Force            0.000406     0.000450     YES
 RMS     Force            0.000084     0.000300     YES
 Maximum Displacement     0.014325     0.001800     NO 
 RMS     Displacement     0.004032     0.001200     NO 
 Predicted change in Energy=-3.566928D-06
 GradGradGradGradGradGradGradGradGradGradGradGradGradGradGradGradGradGrad

                          Input orientation:                          
 ---------------------------------------------------------------------
 Center     Atomic      Atomic             Coordinates (Angstroms)
 Number     Number       Type             X           Y           Z
 ---------------------------------------------------------------------
      1          7           0        0.889287   -0.631618   -0.151435
      2          5           0        1.368611    0.739732   -0.152579
      3          7           0       -1.709800    0.007762   -0.160635
      4          5           0       -0.531754    0.117306    0.674408
      5          1           0       -1.775117    0.567755   -0.992542
      6          1           0        1.213257    1.382789   -1.120273
      7          1           0        2.157497    1.055550    0.655599
      8          1           0        1.320522   -1.313048    0.454143
      9          1           0        0.574472   -1.054763   -1.012666
     10          1           0       -2.116611   -0.899658   -0.310239
     11          1           0       -0.563569   -0.462669    1.708717
     12          1           0       -0.129935    1.260221    0.784013
 ---------------------------------------------------------------------
                    Distance matrix (angstroms):
                    1          2          3          4          5
     1  N    0.000000
     2  B    1.452706   0.000000
     3  N    2.676592   3.164247   0.000000
     4  B    1.806173   2.163957   1.448133   0.000000
     5  H    3.040560   3.258549   1.004951   2.127810   0.000000
     6  H    2.258636   1.172215   3.369846   2.804886   3.100157
     7  H    2.259690   1.172703   4.089019   2.848285   4.291825
     8  H    1.008481   2.141105   3.362342   2.350607   3.900423
     9  H    1.009890   2.142573   2.659476   2.333174   2.855440
    10  H    3.022000   3.854767   1.005628   2.124974   1.653921
    11  H    2.366326   2.939984   2.242683   1.186246   3.134712
    12  H    2.343701   1.842214   2.226429   1.216440   2.518389
                    6          7          8          9         10
     6  H    0.000000
     7  H    2.037742   0.000000
     8  H    3.123752   2.520192   0.000000
     9  H    2.522159   3.121298   1.665782   0.000000
    10  H    4.117491   4.798299   3.545286   2.785567   0.000000
    11  H    3.816544   3.289110   2.418035   3.008593   2.584392
    12  H    2.333558   2.300157   2.972264   3.013867   3.131988
                   11         12
    11  H    0.000000
    12  H    2.002865   0.000000
 Stoichiometry    B2H8N2
 Framework group  C1[X(B2H8N2)]
 Deg. of freedom    30
 Full point group                 C1      NOp   1
 Largest Abelian subgroup         C1      NOp   1
 Largest concise Abelian subgroup C1      NOp   1
                         Standard orientation:                         
 ---------------------------------------------------------------------
 Center     Atomic      Atomic             Coordinates (Angstroms)
 Number     Number       Type             X           Y           Z
 ---------------------------------------------------------------------
      1          7           0        0.859494   -0.724072   -0.152875
      2          5           0        1.454792    0.601010   -0.164466
      3          7           0       -1.674883    0.135663   -0.196841
      4          5           0       -0.499837    0.153956    0.649339
      5          1           0       -1.683900    0.689014   -1.035679
      6          1           0        1.364508    1.243177   -1.140969
      7          1           0        2.260102    0.857845    0.648396
      8          1           0        1.224801   -1.432538    0.464912
      9          1           0        0.517773   -1.129128   -1.012547
     10          1           0       -2.156657   -0.735287   -0.340464
     11          1           0       -0.591244   -0.408506    1.689752
     12          1           0       -0.002431    1.259457    0.750249
 ---------------------------------------------------------------------
 Rotational constants (GHZ):          15.0217222           4.7771777           4.4821861
 Standard basis: STO-3G (5D, 7F)
 There are    28 symmetry adapted cartesian basis functions of A   symmetry.
 There are    28 symmetry adapted basis functions of A   symmetry.
    28 basis functions,    84 primitive gaussians,    28 cartesian basis functions
    16 alpha electrons       16 beta electrons
       nuclear repulsion energy       116.0582607310 Hartrees.
 NAtoms=   12 NActive=   12 NUniq=   12 SFac= 1.00D+00 NAtFMM=   60 NAOKFM=F Big=F
 Integral buffers will be    131072 words long.
 Raffenetti 1 integral format.
 Two-electron integral symmetry is turned on.
 External calculation of energy, first and second derivatives.
 Running external command "../xtb_external.py gbsa=water R"
         input file       "/home/koerstz/git/xtb_gaussian/example/Gau-2665.EIn"
         output file      "/home/koerstz/git/xtb_gaussian/example/Gau-2665.EOu"
         message file     "/home/koerstz/git/xtb_gaussian/example/Gau-2665.EMs"
         fchk file        "/home/koerstz/git/xtb_gaussian/example/Gau-2665.EFC"
         mat. el file     "/home/koerstz/git/xtb_gaussian/example/Gau-2665.EUF"
/opt/xtb/6.3.2/bin/xtb mol.xyz --chrg 0 --uhf 0 --gfn 2 --hess --grad --gbsa water 
 Recovered energy= -12.4211150076     dipole=      0.479000000000     -1.292000000000     -0.967000000000
 Energy=    -12.4211150     NIter=   0.
 Dipole moment=       0.479000      -1.292000      -0.967000
 ***** Axes restored to original set *****
 -------------------------------------------------------------------
 Center     Atomic                   Forces (Hartrees/Bohr)
 Number     Number              X              Y              Z
 -------------------------------------------------------------------
      1        7          -0.000003449   -0.000002700    0.000000427
      2        5          -0.000000520   -0.000001299    0.000003462
      3        7           0.000010377   -0.000002984   -0.000016954
      4        5           0.000002601    0.000001107    0.000008477
      5        1          -0.000004377    0.000012085    0.000000010
      6        1           0.000005187   -0.000001551    0.000002468
      7        1           0.000002005   -0.000006246    0.000002498
      8        1          -0.000002720   -0.000003692   -0.000000536
      9        1          -0.000002664    0.000001627   -0.000000755
     10        1          -0.000008677    0.000003868    0.000000702
     11        1          -0.000002034   -0.000000460   -0.000001149
     12        1           0.000004270    0.000000245    0.000001349
 -------------------------------------------------------------------
 Cartesian Forces:  Max     0.000016954 RMS     0.000005042
 FormGI is forming the generalized inverse of G from B-inverse, IUseBI=4.

 GradGradGradGradGradGradGradGradGradGradGradGradGradGradGradGradGradGrad
 Berny optimization.
 Internal  Forces:  Max     0.000008558 RMS     0.000003199
 Search for a saddle point.
 Step number   5 out of a maximum of   52
 All quantities printed in internal units (Hartrees-Bohrs-Radians)
 Swapping is turned off.
 Second derivative matrix not updated -- analytic derivatives used.
 ITU=  0  0  0  0  0
     Eigenvalues ---   -0.01655   0.00510   0.00632   0.00801   0.01614
     Eigenvalues ---    0.01717   0.02895   0.03955   0.04865   0.05754
     Eigenvalues ---    0.06005   0.08189   0.08717   0.09193   0.09376
     Eigenvalues ---    0.10122   0.11090   0.14024   0.19404   0.21196
     Eigenvalues ---    0.22975   0.24546   0.25298   0.29901   0.37563
     Eigenvalues ---    0.42298   0.43692   0.44159   0.45098   0.90961
 Eigenvectors required to have negative eigenvalues:
                          R6        D11       D5        D12       D1
   1                   -0.78840   0.25100   0.23088  -0.22700  -0.22612
                          D15       R1        D3        R11       D6
   1                    0.15834   0.14653  -0.11501   0.11430   0.10992
 RFO step:  Lambda0=8.191626197D-12 Lambda=-1.67190896D-08.
 Linear search not attempted -- option 19 set.
 Iteration  1 RMS(Cart)=  0.00017057 RMS(Int)=  0.00000009
 Iteration  2 RMS(Cart)=  0.00000006 RMS(Int)=  0.00000006
 Variable       Old X    -DE/DX   Delta X   Delta X   Delta X     New X
                                 (Linear)    (Quad)   (Total)
    R1        2.74522   0.00000   0.00000   0.00001   0.00001   2.74523
    R2        1.90575   0.00000   0.00000  -0.00000  -0.00000   1.90575
    R3        1.90842  -0.00000   0.00000  -0.00001  -0.00001   1.90841
    R4        2.21517  -0.00000   0.00000   0.00001   0.00001   2.21517
    R5        2.21609  -0.00000   0.00000   0.00001   0.00001   2.21610
    R6        3.48128  -0.00000   0.00000  -0.00036  -0.00036   3.48092
    R7        2.73657   0.00001   0.00000  -0.00008  -0.00008   2.73650
    R8        1.89908   0.00000   0.00000  -0.00002  -0.00002   1.89906
    R9        1.90036   0.00000   0.00000  -0.00002  -0.00002   1.90034
   R10        2.24168  -0.00000   0.00000  -0.00001  -0.00001   2.24167
   R11        2.29874   0.00000   0.00000   0.00002   0.00002   2.29876
    A1        2.09121  -0.00000   0.00000   0.00002   0.00002   2.09123
    A2        2.09177  -0.00000   0.00000  -0.00000  -0.00000   2.09176
    A3        1.94150   0.00000   0.00000   0.00002   0.00002   1.94153
    A4        2.06551   0.00000   0.00000  -0.00001  -0.00001   2.06550
    A5        2.06649   0.00000   0.00000  -0.00001  -0.00001   2.06648
    A6        1.56871  -0.00001   0.00000   0.00009   0.00009   1.56880
    A7        2.10637  -0.00000   0.00000  -0.00003  -0.00003   2.10634
    A8        1.72835   0.00000   0.00000   0.00004   0.00004   1.72839
    A9        1.69184   0.00000   0.00000   0.00003   0.00003   1.69188
   A10        2.08067   0.00001   0.00000   0.00028   0.00028   2.08095
   A11        2.07502   0.00000   0.00000   0.00025   0.00025   2.07526
   A12        1.93197  -0.00000   0.00000   0.00017   0.00017   1.93214
   A13        2.03083   0.00000   0.00000   0.00006   0.00006   2.03089
   A14        1.97332   0.00000   0.00000   0.00004   0.00004   1.97337
   A15        1.97106  -0.00000   0.00000   0.00002   0.00002   1.97108
   A16        1.52822  -0.00001   0.00000   0.00008   0.00008   1.52830
    D1        2.68982  -0.00000   0.00000  -0.00011  -0.00011   2.68971
    D2       -0.13711  -0.00000   0.00000   0.00007   0.00007  -0.13703
    D3       -1.84447  -0.00000   0.00000  -0.00001  -0.00001  -1.84448
    D4        0.17437  -0.00000   0.00000  -0.00018  -0.00018   0.17419
    D5       -2.65256  -0.00000   0.00000   0.00000   0.00000  -2.65256
    D6        1.92326  -0.00000   0.00000  -0.00008  -0.00008   1.92317
    D7       -0.07934   0.00000   0.00000  -0.00002  -0.00002  -0.07936
    D8        1.99257  -0.00000   0.00000  -0.00001  -0.00001   1.99256
    D9       -2.14954   0.00000   0.00000  -0.00002  -0.00002  -2.14955
   D10        3.01478  -0.00001   0.00000  -0.00057  -0.00057   3.01421
   D11        0.69128  -0.00001   0.00000  -0.00071  -0.00071   0.69057
   D12       -0.81724   0.00001   0.00000   0.00058   0.00058  -0.81666
   D13       -3.14074   0.00001   0.00000   0.00044   0.00044  -3.14030
   D14       -1.97778   0.00000   0.00000   0.00009   0.00009  -1.97769
   D15        1.95344  -0.00000   0.00000  -0.00006  -0.00006   1.95338
         Item               Value     Threshold  Converged?
 Maximum Force            0.000009     0.000450     YES
 RMS     Force            0.000003     0.000300     YES
 Maximum Displacement     0.000560     0.001800     YES
 RMS     Displacement     0.000171     0.001200     YES
 Predicted change in Energy=-8.355449D-09
 Optimization completed.
    -- Stationary point found.
                           ----------------------------
                           !   Optimized Parameters   !
                           ! (Angstroms and Degrees)  !
 --------------------------                            --------------------------
 ! Name  Definition              Value          Derivative Info.                !
 --------------------------------------------------------------------------------
 ! R1    R(1,2)                  1.4527         -DE/DX =    0.0                 !
 ! R2    R(1,8)                  1.0085         -DE/DX =    0.0                 !
 ! R3    R(1,9)                  1.0099         -DE/DX =    0.0                 !
 ! R4    R(2,6)                  1.1722         -DE/DX =    0.0                 !
 ! R5    R(2,7)                  1.1727         -DE/DX =    0.0                 !
 ! R6    R(2,12)                 1.8422         -DE/DX =    0.0                 !
 ! R7    R(3,4)                  1.4481         -DE/DX =    0.0                 !
 ! R8    R(3,5)                  1.005          -DE/DX =    0.0                 !
 ! R9    R(3,10)                 1.0056         -DE/DX =    0.0                 !
 ! R10   R(4,11)                 1.1862         -DE/DX =    0.0                 !
 ! R11   R(4,12)                 1.2164         -DE/DX =    0.0                 !
 ! A1    A(2,1,8)              119.8175         -DE/DX =    0.0                 !
 ! A2    A(2,1,9)              119.8493         -DE/DX =    0.0                 !
 ! A3    A(8,1,9)              111.2399         -DE/DX =    0.0                 !
 ! A4    A(1,2,6)              118.3451         -DE/DX =    0.0                 !
 ! A5    A(1,2,7)              118.4013         -DE/DX =    0.0                 !
 ! A6    A(1,2,12)              89.8804         -DE/DX =    0.0                 !
 ! A7    A(6,2,7)              120.6861         -DE/DX =    0.0                 !
 ! A8    A(6,2,12)              99.0271         -DE/DX =    0.0                 !
 ! A9    A(7,2,12)              96.9355         -DE/DX =    0.0                 !
 ! A10   A(4,3,5)              119.2134         -DE/DX =    0.0                 !
 ! A11   A(4,3,10)             118.8898         -DE/DX =    0.0                 !
 ! A12   A(5,3,10)             110.6937         -DE/DX =    0.0                 !
 ! A13   A(3,4,11)             116.3578         -DE/DX =    0.0                 !
 ! A14   A(3,4,12)             113.0632         -DE/DX =    0.0                 !
 ! A15   A(11,4,12)            112.9334         -DE/DX =    0.0                 !
 ! A16   A(2,12,4)              87.5605         -DE/DX =    0.0                 !
 ! D1    D(8,1,2,6)            154.1155         -DE/DX =    0.0                 !
 ! D2    D(8,1,2,7)             -7.8557         -DE/DX =    0.0                 !
 ! D3    D(8,1,2,12)          -105.6806         -DE/DX =    0.0                 !
 ! D4    D(9,1,2,6)              9.9905         -DE/DX =    0.0                 !
 ! D5    D(9,1,2,7)           -151.9807         -DE/DX =    0.0                 !
 ! D6    D(9,1,2,12)           110.1944         -DE/DX =    0.0                 !
 ! D7    D(1,2,12,4)            -4.546          -DE/DX =    0.0                 !
 ! D8    D(6,2,12,4)           114.1658         -DE/DX =    0.0                 !
 ! D9    D(7,2,12,4)          -123.1595         -DE/DX =    0.0                 !
 ! D10   D(5,3,4,11)           172.7343         -DE/DX =    0.0                 !
 ! D11   D(5,3,4,12)            39.6075         -DE/DX =    0.0                 !
 ! D12   D(10,3,4,11)          -46.8242         -DE/DX =    0.0                 !
 ! D13   D(10,3,4,12)         -179.9511         -DE/DX =    0.0                 !
 ! D14   D(3,4,12,2)          -113.3184         -DE/DX =    0.0                 !
 ! D15   D(11,4,12,2)          111.9241         -DE/DX =    0.0                 !
 --------------------------------------------------------------------------------
 GradGradGradGradGradGradGradGradGradGradGradGradGradGradGradGradGradGrad

                          Input orientation:                          
 ---------------------------------------------------------------------
 Center     Atomic      Atomic             Coordinates (Angstroms)
 Number     Number       Type             X           Y           Z
 ---------------------------------------------------------------------
      1          7           0        0.889287   -0.631618   -0.151435
      2          5           0        1.368611    0.739732   -0.152579
      3          7           0       -1.709800    0.007762   -0.160635
      4          5           0       -0.531754    0.117306    0.674408
      5          1           0       -1.775117    0.567755   -0.992542
      6          1           0        1.213257    1.382789   -1.120273
      7          1           0        2.157497    1.055550    0.655599
      8          1           0        1.320522   -1.313048    0.454143
      9          1           0        0.574472   -1.054763   -1.012666
     10          1           0       -2.116611   -0.899658   -0.310239
     11          1           0       -0.563569   -0.462669    1.708717
     12          1           0       -0.129935    1.260221    0.784013
 ---------------------------------------------------------------------
                    Distance matrix (angstroms):
                    1          2          3          4          5
     1  N    0.000000
     2  B    1.452706   0.000000
     3  N    2.676592   3.164247   0.000000
     4  B    1.806173   2.163957   1.448133   0.000000
     5  H    3.040560   3.258549   1.004951   2.127810   0.000000
     6  H    2.258636   1.172215   3.369846   2.804886   3.100157
     7  H    2.259690   1.172703   4.089019   2.848285   4.291825
     8  H    1.008481   2.141105   3.362342   2.350607   3.900423
     9  H    1.009890   2.142573   2.659476   2.333174   2.855440
    10  H    3.022000   3.854767   1.005628   2.124974   1.653921
    11  H    2.366326   2.939984   2.242683   1.186246   3.134712
    12  H    2.343701   1.842214   2.226429   1.216440   2.518389
                    6          7          8          9         10
     6  H    0.000000
     7  H    2.037742   0.000000
     8  H    3.123752   2.520192   0.000000
     9  H    2.522159   3.121298   1.665782   0.000000
    10  H    4.117491   4.798299   3.545286   2.785567   0.000000
    11  H    3.816544   3.289110   2.418035   3.008593   2.584392
    12  H    2.333558   2.300157   2.972264   3.013867   3.131988
                   11         12
    11  H    0.000000
    12  H    2.002865   0.000000
 Stoichiometry    B2H8N2
 Framework group  C1[X(B2H8N2)]
 Deg. of freedom    30
 Full point group                 C1      NOp   1
 Largest Abelian subgroup         C1      NOp   1
 Largest concise Abelian subgroup C1      NOp   1
                         Standard orientation:                         
 ---------------------------------------------------------------------
 Center     Atomic      Atomic             Coordinates (Angstroms)
 Number     Number       Type             X           Y           Z
 ---------------------------------------------------------------------
      1          7           0        0.859494   -0.724072   -0.152875
      2          5           0        1.454792    0.601010   -0.164466
      3          7           0       -1.674883    0.135663   -0.196841
      4          5           0       -0.499837    0.153956    0.649339
      5          1           0       -1.683900    0.689014   -1.035679
      6          1           0        1.364508    1.243177   -1.140969
      7          1           0        2.260102    0.857845    0.648396
      8          1           0        1.224801   -1.432538    0.464912
      9          1           0        0.517773   -1.129128   -1.012547
     10          1           0       -2.156657   -0.735287   -0.340464
     11          1           0       -0.591244   -0.408506    1.689752
     12          1           0       -0.002431    1.259457    0.750249
 ---------------------------------------------------------------------
 Rotational constants (GHZ):          15.0217222           4.7771777           4.4821861
 Rotating derivatives to standard orientation.
 Full mass-weighted force constant matrix:
 Low frequencies --- -372.0600   -0.0235   -0.0166   -0.0144    0.0136    0.0215
 Low frequencies ---    0.0234  137.9984  274.8408
 ******    1 imaginary frequencies (negative Signs) ****** 
 Diagonal vibrational polarizability:
        0.0000000       0.0000000       0.0000000
 Harmonic frequencies (cm**-1), IR intensities (KM/Mole), Raman scattering
 activities (A**4/AMU), depolarization ratios for plane and unpolarized
 incident light, reduced masses (AMU), force constants (mDyne/A),
 and normal coordinates:
                      1                      2                      3
                      A                      A                      A
 Frequencies --   -372.0600               137.9984               274.8408
 Red. masses --      3.1794                 1.9566                 2.3451
 Frc consts  --      0.2593                 0.0220                 0.1044
 IR Inten    --      0.0000                 0.0000                 0.0000
  Atom  AN      X      Y      Z        X      Y      Z        X      Y      Z
     1   7    -0.16  -0.03   0.06    -0.05   0.05  -0.08     0.22  -0.13  -0.06
     2   5    -0.18   0.14   0.11     0.15  -0.04   0.10    -0.12   0.01   0.08
     3   7     0.02   0.05   0.02    -0.09  -0.10   0.06    -0.05   0.07   0.03
     4   5     0.25  -0.16  -0.16     0.01   0.11  -0.08    -0.07   0.05  -0.07
     5   1     0.21  -0.20  -0.15    -0.22  -0.26  -0.05    -0.22  -0.01  -0.01
     6   1     0.07  -0.04  -0.04     0.46   0.02   0.11    -0.02  -0.04   0.03
     7   1     0.03  -0.02  -0.03     0.00  -0.19   0.30    -0.19   0.13   0.13
     8   1     0.08  -0.02  -0.07    -0.20  -0.08  -0.13     0.17  -0.05   0.05
     9   1     0.14  -0.03  -0.06    -0.01   0.19  -0.16     0.32  -0.18  -0.07
    10   1    -0.00   0.04   0.12    -0.03  -0.17   0.27    -0.51   0.26   0.44
    11   1     0.13   0.27   0.06     0.13   0.29   0.02     0.05   0.05  -0.07
    12   1     0.55  -0.13  -0.46    -0.02   0.15  -0.31     0.09  -0.02  -0.21
                      4                      5                      6
                      A                      A                      A
 Frequencies --    331.6951               374.7520               500.4439
 Red. masses --      2.1760                 1.4406                 1.4088
[...]
                      A                      A                      A
 Frequencies --   1547.8748              2200.3258              2447.2519
 Red. masses --      1.1076                 1.0704                 1.0730
 Frc consts  --      1.5635                 3.0533                 3.7863
 IR Inten    --      0.0000                 0.0000                 0.0000
  Atom  AN      X      Y      Z        X      Y      Z        X      Y      Z
     1   7     0.00   0.00   0.00     0.01  -0.00  -0.00     0.00  -0.00  -0.00
     2   5    -0.00  -0.00  -0.00     0.00  -0.01  -0.00     0.00   0.00  -0.00
     3   7    -0.05  -0.01  -0.07    -0.00  -0.00  -0.00    -0.00   0.00  -0.00
     4   5     0.01  -0.00   0.00    -0.03  -0.07   0.00     0.00   0.04  -0.07
     5   1     0.43   0.47   0.30    -0.00  -0.00   0.00    -0.00  -0.01  -0.01
     6   1    -0.00   0.00   0.00    -0.02   0.01   0.01     0.00  -0.01   0.03
     7   1    -0.00  -0.00  -0.00    -0.02   0.01   0.02    -0.02  -0.00  -0.02
     8   1    -0.01  -0.01  -0.01    -0.00  -0.01  -0.00     0.00  -0.00  -0.00
     9   1     0.00  -0.02   0.01    -0.00  -0.01   0.00    -0.00   0.00  -0.00
    10   1     0.20  -0.23   0.63    -0.00  -0.00  -0.01    -0.00   0.00  -0.00
    11   1    -0.04  -0.01   0.00    -0.01  -0.01  -0.08    -0.07  -0.48   0.86
    12   1    -0.02   0.02  -0.02     0.36   0.92   0.10     0.04   0.09  -0.02
                     25                     26                     27
                      A                      A                      A
 Frequencies --   2593.3678              2610.1930              3456.0839
 Red. masses --      1.0426                 1.1231                 1.0510
 Frc consts  --      4.1313                 4.5082                 7.3962
 IR Inten    --      0.0000                 0.0000                 0.0000
  Atom  AN      X      Y      Z        X      Y      Z        X      Y      Z
     1   7    -0.00   0.00   0.00    -0.00   0.00  -0.00    -0.01  -0.04  -0.03
     2   5    -0.04  -0.04  -0.00    -0.04   0.03  -0.09     0.00   0.00  -0.00
     3   7    -0.00   0.00  -0.00    -0.00  -0.00   0.00    -0.00   0.00   0.00
     4   5     0.00   0.00  -0.00    -0.00  -0.00   0.00     0.00  -0.00  -0.00
     5   1     0.00  -0.00  -0.00     0.00   0.00  -0.00     0.00   0.00  -0.00
     6   1    -0.07   0.33  -0.53     0.05  -0.44   0.64     0.00   0.00  -0.00
     7   1     0.52   0.16   0.55     0.43   0.15   0.42     0.00   0.00   0.00
     8   1    -0.00  -0.00   0.00     0.00   0.00  -0.01    -0.16   0.28  -0.29
     9   1    -0.00  -0.00  -0.00    -0.00  -0.00  -0.01     0.32   0.34   0.77
    10   1     0.00  -0.00  -0.00     0.00   0.00  -0.00    -0.00  -0.01  -0.00
    11   1    -0.00  -0.02   0.04    -0.00   0.00  -0.00    -0.00   0.00   0.00
    12   1    -0.01  -0.00   0.00    -0.00   0.00  -0.00    -0.00   0.00   0.00
                     28                     29                     30
                      A                      A                      A
 Frequencies --   3484.5440              3498.7573              3531.6834
 Red. masses --      1.0907                 1.0461                 1.0924
 Frc consts  --      7.8028                 7.5447                 8.0281
 IR Inten    --      0.0000                 0.0000                 0.0000
  Atom  AN      X      Y      Z        X      Y      Z        X      Y      Z
     1   7     0.03  -0.03   0.07    -0.00   0.00  -0.00    -0.00   0.00  -0.00
     2   5     0.00  -0.00   0.00     0.00  -0.00  -0.00    -0.00   0.00   0.00
     3   7    -0.00   0.00  -0.00    -0.03  -0.02  -0.04     0.02   0.07  -0.04
     4   5     0.00  -0.00   0.00     0.00  -0.00  -0.00     0.00   0.00  -0.00
     5   1    -0.00  -0.01   0.02    -0.01  -0.36   0.47     0.01  -0.45   0.67
     6   1    -0.00   0.00  -0.00     0.00   0.00  -0.00     0.00  -0.00   0.00
     7   1    -0.00   0.00  -0.00     0.00   0.00   0.00     0.00  -0.00   0.00
     8   1    -0.32   0.63  -0.57     0.00  -0.01   0.01     0.01  -0.01   0.01
     9   1    -0.14  -0.18  -0.34     0.00   0.01   0.01     0.00   0.00   0.00
    10   1     0.00   0.00  -0.00     0.39   0.70   0.08    -0.28  -0.50  -0.09
    11   1    -0.00   0.00  -0.00    -0.00  -0.00   0.00    -0.00  -0.00  -0.00
    12   1    -0.00   0.00   0.00    -0.00   0.00  -0.00     0.00  -0.00   0.00

 -------------------
 - Thermochemistry -
 -------------------
 Temperature   298.150 Kelvin.  Pressure   1.00000 Atm.
 Atom     1 has atomic number  7 and mass  14.00307
 Atom     2 has atomic number  5 and mass  11.00931
 Atom     3 has atomic number  7 and mass  14.00307
 Atom     4 has atomic number  5 and mass  11.00931
 Atom     5 has atomic number  1 and mass   1.00783
 Atom     6 has atomic number  1 and mass   1.00783
 Atom     7 has atomic number  1 and mass   1.00783
 Atom     8 has atomic number  1 and mass   1.00783
 Atom     9 has atomic number  1 and mass   1.00783
 Atom    10 has atomic number  1 and mass   1.00783
 Atom    11 has atomic number  1 and mass   1.00783
 Atom    12 has atomic number  1 and mass   1.00783
 Molecular mass:    58.08736 amu.
 Principal axes and moments of inertia in atomic units:
                           1         2         3
     Eigenvalues --   120.14210 377.78398 402.64754
           X            0.99955   0.01801   0.02391
           Y           -0.01603   0.99664  -0.08038
           Z           -0.02528   0.07996   0.99648
 This molecule is an asymmetric top.
 Rotational symmetry number  1.
 Rotational temperatures (Kelvin)      0.72093     0.22927     0.21511
 Rotational constants (GHZ):          15.02172     4.77718     4.48219
    1 imaginary frequencies ignored.
 Zero-point vibrational energy     248590.6 (Joules/Mol)
                                   59.41459 (Kcal/Mol)
 Warning -- explicit consideration of   6 degrees of freedom as
           vibrations may cause significant error
 Vibrational temperatures:    198.55   395.43   477.24   539.18   720.03
          (Kelvin)            875.62   942.00  1046.67  1081.78  1158.52
                             1249.44  1362.95  1481.10  1501.23  1517.92
                             1537.35  1609.24  1726.10  1737.87  2137.06
                             2227.05  3165.78  3521.05  3731.28  3755.49
                             4972.53  5013.48  5033.93  5081.30
 
 Zero-point correction=                           0.094683 (Hartree/Particle)
 Thermal correction to Energy=                    0.100427
 Thermal correction to Enthalpy=                  0.101371
 Thermal correction to Gibbs Free Energy=         0.067089
 Sum of electronic and zero-point Energies=            -12.326432
 Sum of electronic and thermal Energies=               -12.320688
 Sum of electronic and thermal Enthalpies=             -12.319744
 Sum of electronic and thermal Free Energies=          -12.354026
 
                     E (Thermal)             CV                S
                      KCal/Mol        Cal/Mol-Kelvin    Cal/Mol-Kelvin
 Total                   63.019             21.178             72.154
 Electronic               0.000              0.000              0.000
 Translational            0.889              2.981             38.099
 Rotational               0.889              2.981             24.417
 Vibrational             61.241             15.217              9.638
 Vibration     1          0.614              1.915              2.831
 Vibration     2          0.677              1.720              1.566
 Vibration     3          0.714              1.612              1.252
 Vibration     4          0.746              1.524              1.060
 Vibration     5          0.856              1.249              0.657
 Vibration     6          0.967              1.014              0.435
                       Q            Log10(Q)             Ln(Q)
 Total Bot       0.138467D-30        -30.858653        -71.054675
 Total V=0       0.492659D+13         12.692546         29.225668
 Vib (Bot)       0.164434D-42        -42.784007        -98.513817
 Vib (Bot)    1  0.147425D+01          0.168572          0.388151
 Vib (Bot)    2  0.701428D+00         -0.154017         -0.354637
 Vib (Bot)    3  0.562718D+00         -0.249709         -0.574976
 Vib (Bot)    4  0.484229D+00         -0.314949         -0.725197
 Vib (Bot)    5  0.328285D+00         -0.483749         -1.113874
 Vib (Bot)    6  0.243184D+00         -0.614066         -1.413938
 Vib (V=0)       0.585049D+01          0.767192          1.766526
 Vib (V=0)    1  0.205673D+01          0.313178          0.721119
 Vib (V=0)    2  0.136139D+01          0.133984          0.308510
 Vib (V=0)    3  0.125276D+01          0.097869          0.225351
 Vib (V=0)    4  0.119604D+01          0.077747          0.179020
 Vib (V=0)    5  0.109814D+01          0.040657          0.093617
 Vib (V=0)    6  0.105600D+01          0.023665          0.054490
 Electronic      0.100000D+01          0.000000          0.000000
 Translational   0.174011D+08          7.240576         16.672043
 Rotational      0.483924D+05          4.684777         10.787099
 ***** Axes restored to original set *****
 -------------------------------------------------------------------
 Center     Atomic                   Forces (Hartrees/Bohr)
 Number     Number              X              Y              Z
 -------------------------------------------------------------------
      1        7          -0.000003449   -0.000002700    0.000000427
      2        5          -0.000000520   -0.000001299    0.000003462
      3        7           0.000010377   -0.000002984   -0.000016954
      4        5           0.000002601    0.000001107    0.000008477
      5        1          -0.000004377    0.000012085    0.000000010
      6        1           0.000005187   -0.000001551    0.000002468
      7        1           0.000002005   -0.000006246    0.000002498
      8        1          -0.000002720   -0.000003692   -0.000000536
      9        1          -0.000002664    0.000001627   -0.000000755
     10        1          -0.000008677    0.000003868    0.000000702
     11        1          -0.000002034   -0.000000460   -0.000001149
     12        1           0.000004270    0.000000245    0.000001349
 -------------------------------------------------------------------
 Cartesian Forces:  Max     0.000016954 RMS     0.000005042
 1\1\GINC-SUNRAY\Freq\RExternal='../xtb_external.py gbsa=water'\ZDO\B2H
 8N2\KOERSTZ\15-Feb-2021\0\\# opt=(ts, calcall, noeigen, nomicro) # ext
 ernal="../xtb_external.py gbsa=water"\\1_ts.xyz\\0,1\N,0.8892868289,-0
 .6316183625,-0.1514352401\B,1.3686111068,0.7397320897,-0.152579081\N,-
 1.7097999401,0.0077624043,-0.1606348589\B,-0.5317540582,0.11730629,0.6
 744075798\H,-1.7751171208,0.5677551708,-0.9925416037\H,1.2132571724,1.
 3827885367,-1.120273085\H,2.1574967225,1.0555503568,0.6555987502\H,1.3
 205217167,-1.3130475942,0.4541432771\H,0.5744715106,-1.0547630954,-1.0
 12665911\H,-2.1166105381,-0.899658049,-0.3102394104\H,-0.5635686233,-0
 .4626691253,1.7087165368\H,-0.1299347774,1.2602213779,0.7840130462\\Ve
 rsion=ES64L-G16RevA.03\HF=-12.421115\RMSD=0.000e+00\RMSF=5.042e-06\Zer
 oPoint=0.0946832\Thermal=0.100427\Dipole=0.577754,-1.2350675,-0.987219
 7\PG=C01 [X(B2H8N2)]\NImag=1\\0.20960091,-0.00458936,0.59739365,0.2371
 9743,-0.01282264,0.54857285,-0.05628104,-0.08721039,-0.01521837,0.1938
 3782,-0.02600534,-0.21699978,-0.01416223,0.11182700,0.34836766,-0.0048
 2108,0.01626756,-0.05267498,0.13634512,-0.07212837,0.32760939,-0.04427
 505,0.00934721,0.00363458,-0.00082995,0.00845796,0.00070712,0.28895014
 ,0.01355478,0.00357122,0.00199090,0.00109534,-0.00536902,-0.00343550,0
 .16993898,0.54487380,-0.00683050,0.00422689,0.00779137,-0.00000457,0.0
 0068209,-0.00014259,0.19047501,-0.13335529,0.46147112,0.02359285,0.000
 27197,-0.01990990,-0.01001258,-0.02987948,-0.00112476,-0.12913950,-0.0
 3202690,-0.10118187,0.20232054,-0.03606623,-0.03619832,0.01305602,-0.0
 1532619,0.03044607,0.01622119,-0.03016694,-0.04986574,-0.00120666,0.09
 106335,0.25358446,-0.01169080,-0.01003266,-0.02161001,0.00005820,0.017
 97526,-0.00090273,-0.10011214,-0.00173700,-0.11796268,0.11842710,-0.06
 500756,0.32765805,0.00086875,0.00060022,-0.00068222,0.00024924,-0.0009
 6045,-0.00070262,-0.02089466,-0.00496569,-0.02690609,-0.00790322,0.012
 60890,-0.01922560,0.02948720,-0.00209329,-0.00009542,0.00103669,-0.000
 12259,0.00119220,-0.00004907,-0.00410301,-0.15108794,0.16477226,0.0051
 3997,-0.00087827,-0.00040011,0.00157427,0.17233927,-0.00013820,-0.0008
 3383,0.00105748,-0.00038953,0.00120976,0.00046025,-0.03784576,0.188803
 76,-0.29233118,0.00421854,0.00695938,-0.01253200,0.03582321,-0.1928681
 6,0.30352392,0.00435382,-0.00075293,0.00180540,-0.03030667,0.01033324,
 -0.02667746,0.00033168,-0.00050678,0.00037923,-0.00178134,0.00124353,0
 .00310610,0.00002944,0.00006198,0.00011839,0.02960344,0.00077855,-0.01
 834971,0.01878806,0.01195980,-0.07854871,0.07890692,-0.00069925,0.0001
 0067,-0.00025390,0.00159780,-0.00069029,-0.00132626,-0.00016353,-0.000
 08682,-0.00017531,-0.01109957,0.09549874,-0.00005795,0.00237577,0.0019
 2079,-0.02785928,0.08431164,-0.15607846,0.00007770,0.00026046,0.000536
 00,-0.00009162,-0.00099546,-0.00130469,0.00021431,-0.00002327,0.000156
 24,0.02857111,-0.09517296,0.17075904,-0.00080057,-0.00424351,-0.005163
 43,-0.10568512,-0.03460953,-0.08978455,-0.00104143,-0.00078786,-0.0000
 9129,-0.00106763,0.00284207,-0.00044456,0.00007364,-0.00013344,0.00015
 408,0.00031043,-0.00095800,-0.00493507,0.11750914,-0.01680772,-0.01059
 919,-0.01537740,-0.02939872,-0.03943396,-0.02701995,-0.00057345,0.0004
 7363,0.00001809,0.00156721,-0.00145297,-0.00042576,0.00009837,-0.00014
 854,-0.00012577,0.00545125,0.00309669,0.00713813,0.04078551,0.04878302
 ,-0.00534013,-0.00508894,-0.00030080,-0.08700177,-0.02866559,-0.119216
 59,-0.00072921,0.00061538,0.00023677,0.00266565,-0.00157457,-0.0004010
 5,0.00029899,-0.00004529,-0.00004551,-0.01325877,-0.00199821,-0.012228
 73,0.10040787,0.03578399,0.12886978,-0.08905397,0.10654219,-0.10982534
 ,0.00440679,-0.01024262,0.00603101,-0.00244944,0.00043583,0.00035546,-
 0.00510393,0.00828925,-0.00284118,-0.00016633,-0.00004745,0.00040444,0
 .00105666,-0.00357852,0.00014114,-0.00069948,0.00002425,0.00110256,0.0
 9919235,0.10379778,-0.20683404,0.15201356,0.00734461,-0.01578423,0.012
 87653,-0.00076590,-0.00000574,-0.00059535,0.00422130,-0.00258900,0.000
 31610,0.00003023,-0.00006102,-0.00027532,-0.00109506,-0.00297708,-0.00
 034806,0.00002659,0.00138339,-0.00001217,-0.10835645,0.21721478,-0.103
 13274,0.13923549,-0.17111336,-0.00107862,0.00519189,0.00039165,0.00225
 214,-0.00038196,0.00061751,0.00008844,-0.00382382,0.00224741,0.0001381
 7,-0.00004385,0.00001640,-0.00017660,0.00107709,0.00071618,0.00046755,
 -0.00194072,0.00001497,0.11177496,-0.15661090,0.18942926,-0.05657781,-
 0.03884446,-0.10126505,-0.00326759,-0.01026401,-0.00992091,0.00029108,
 -0.00134685,-0.00159716,0.00355039,0.00711028,0.00974945,-0.00035555,0
 .00043228,0.00004124,-0.00080542,0.00168575,0.00085931,0.00029572,-0.0
 0332004,-0.00117179,-0.00490519,-0.00520263,-0.01401904,0.06699733,-0.
 04886472,-0.10544345,-0.12952209,-0.00787465,-0.00961136,-0.01711284,-
 0.00128094,0.00078658,0.00065386,0.00156145,-0.00207032,-0.00385540,0.
 00061944,-0.00039055,0.00012158,0.00000377,0.00079999,0.00009472,-0.00
 079405,-0.00292222,-0.00000820,0.00701540,0.00961743,0.01904029,0.0486
 5536,0.11066376,-0.11159705,-0.12263938,-0.30082520,0.00104221,0.00067
 239,0.00140317,-0.00211543,0.00087756,0.00029833,0.00347862,-0.0050641
 2,-0.00556090,0.00042560,-0.00013495,-0.00004809,0.00099313,0.00112895
 ,0.00055856,0.00019878,0.00107321,0.00156373,-0.00798825,-0.00721802,-
 0.02059337,0.11415899,0.13122807,0.32335755,0.00374552,-0.00129995,-0.
 00100851,-0.00120707,-0.00095600,-0.00046785,-0.07625500,-0.13634465,-
 0.03233314,-0.01546448,-0.01758991,-0.00439916,-0.00006407,0.00110714,
 0.00096975,0.00012155,0.00008384,-0.00008046,-0.00000891,0.00018967,0.
 00018631,-0.00022057,0.00001338,-0.00024096,-0.00079184,0.00029279,0.0
 0081186,0.09140608,0.00105705,0.00139929,0.00051065,0.00120987,-0.0008
 4137,-0.00054828,-0.14798382,-0.34033900,-0.03324263,0.00061362,-0.003
 17400,-0.00005086,-0.00819693,-0.02292340,-0.00346669,-0.00006837,0.00
 014941,-0.00002040,-0.00013731,0.00012163,0.00007915,0.00006487,-0.000
 02434,0.00008291,-0.00034044,-0.00004479,-0.00001891,0.15480884,0.3650
 3511,-0.00049668,0.00220977,0.00109821,0.00124039,-0.00061134,-0.00057
 987,-0.04626346,-0.05240883,-0.04630454,-0.00098620,-0.01401622,-0.002
 36841,0.01282738,0.02957191,0.00204566,-0.00022981,0.00005526,0.000018
 93,-0.00032565,-0.00003384,0.00003892,-0.00018424,-0.00014680,0.000161
 10,-0.00000242,-0.00017455,0.00009899,0.03854697,0.03695461,0.04666405
 ,-0.00784792,-0.00245681,0.01199660,0.00071345,0.00161141,0.00161295,-
 0.00326454,0.00982995,-0.01667946,-0.02393327,-0.00657901,0.00501926,-
 0.00127417,-0.00127059,-0.00461363,0.00008088,0.00014548,0.00013492,-0
 .00001556,-0.00010040,-0.00017344,-0.00019258,-0.00044538,0.00154976,-
 0.00104349,-0.00007583,0.00033936,0.00052533,0.00117528,0.00014039,0.0
 3675736,0.00597715,0.00364281,-0.00869615,0.00329125,-0.00348171,-0.00
 104027,0.00404808,0.00148842,0.00161573,-0.00765639,-0.06546308,0.0687
 7462,-0.00104261,0.00179994,0.00068758,-0.00096613,-0.00004551,0.00073
 351,-0.00058047,-0.00006415,-0.00014163,-0.00044004,0.00078388,-0.0004
 9016,0.00052159,-0.00038567,-0.00028775,0.00059371,0.00025487,-0.00032
 662,0.00180968,0.07548142,0.01135110,0.00216326,-0.01265496,-0.0011857
 1,-0.00374128,-0.00054755,-0.00523923,0.00891433,-0.01381211,-0.002137
 19,0.06654642,-0.13910645,-0.00266448,-0.00058743,-0.00238508,-0.00000
 059,0.00036454,-0.00064507,0.00013227,0.00033403,0.00052505,0.00002593
 ,0.00017505,-0.00042620,0.00097189,0.00039910,0.00013048,0.00065838,0.
 00044721,-0.00026932,-0.00295990,-0.07767852,0.16853978,0.01267449,0.0
 2263581,-0.00156119,0.00838272,-0.01931218,-0.01119696,-0.01142335,-0.
 01887614,-0.00558561,-0.03505782,-0.01742911,0.00235333,-0.00005026,-0
 .00054527,0.00125747,-0.00299448,0.00024765,0.00302589,-0.00887024,0.0
 0208406,0.00301374,-0.00186430,0.00043153,0.00237694,-0.00338763,0.000
 74199,0.00025220,-0.00178654,-0.00220264,-0.00426668,-0.00050549,-0.00
 555582,0.00104752,0.04488290,0.00926135,-0.01148706,-0.00681537,0.0032
 0467,-0.00993580,-0.00293793,-0.00621891,-0.00462687,-0.00331508,-0.03
 647390,-0.12164853,-0.00423038,-0.00020221,0.00034056,-0.00003697,-0.0
 0260492,0.00105261,0.00164593,-0.00141001,0.00076267,0.00105609,0.0002
 9329,-0.00072403,-0.00133627,0.00091317,-0.00099940,0.00038296,-0.0008
 9887,0.00038659,-0.00107334,-0.00364378,-0.01401122,0.00266329,0.03778
 011,0.16089049,-0.00444341,-0.01506128,-0.00126139,-0.00594806,0.00926
 577,0.00027832,-0.00484131,-0.01014381,-0.00039800,-0.00344680,-0.0110
 9459,-0.02815654,0.00045335,-0.00122872,0.00008191,0.00536986,-0.00139
 417,-0.00440878,-0.00061600,0.00057599,0.00094346,0.00100351,-0.000174
 61,-0.00146155,0.00219549,-0.00086455,-0.00038322,-0.00264319,-0.00072
 676,-0.00060371,0.00363319,0.01684967,0.00065143,0.00928337,0.01399706
 ,0.03471806\\0.00000345,0.00000270,-0.00000043,0.00000052,0.00000130,-
 0.00000346,-0.00001038,0.00000298,0.00001695,-0.00000260,-0.00000111,-
 0.00000848,0.00000438,-0.00001208,0.,-0.00000519,0.00000155,-0.0000024
 7,-0.00000201,0.00000625,-0.00000250,0.00000272,0.00000369,0.00000054,
 0.00000266,-0.00000163,0.00000076,0.00000868,-0.00000387,-0.00000070,0
 .00000203,0.00000046,0.00000115,-0.00000427,-0.00000024,-0.00000135\\\
 @


 TIMES HAVE CHANGED. IN THE BIBLE WHEN AN ASS
 SPOKE IT WAS CONSIDERED A MIRACLE.
 Job cpu time:       0 days  0 hours  0 minutes  0.9 seconds.
 Elapsed time:       0 days  0 hours  0 minutes  2.5 seconds.
 File lengths (MBytes):  RWF=      6 Int=      0 D2E=      0 Chk=      1 Scr=      1
 Normal termination of Gaussian 16 at Mon Feb 15 13:06:32 2021.
